
     Program PWSCF v.7.2 starts on  7Sep2023 at  6:37:48 

     This program is part of the open-source Quantum ESPRESSO suite
     for quantum simulation of materials; please cite
         "P. Giannozzi et al., J. Phys.:Condens. Matter 21 395502 (2009);
         "P. Giannozzi et al., J. Phys.:Condens. Matter 29 465901 (2017);
         "P. Giannozzi et al., J. Chem. Phys. 152 154105 (2020);
          URL http://www.quantum-espresso.org", 
     in publications or presentations arising from this work. More details at
     http://www.quantum-espresso.org/quote

     Parallel version (MPI), running on     4 processors

     MPI processes distributed on     1 nodes
     30441 MiB available memory on the printing compute node when the environment starts

     Reading input from scf.in
Warning: card &CELL ignored
Warning: card CELL_DYNAMICS = 'BFGS' ignored
Warning: card CELL_FACTOR = 2 ignored
Warning: card PRESS_CONV_THR = 0.2 ignored
Warning: card / ignored

     Current dimensions of program PWSCF are:
     Max number of different atomic species (ntypx) = 10
     Max number of k-points (npk) = 120000
     Max angular momentum in pseudopotentials (lmaxx) =  4
     Found identity + (  0.0000 -0.5000 -0.5000) symmetry
     This is a supercell, fractional translations are disabled
     Message from routine setup:
     using ibrav=0 with symmetry is DISCOURAGED, use correct ibrav instead

     R & G space division:  proc/nbgrp/npool/nimage =       4
     Subspace diagonalization in iterative solution of the eigenvalue problem:
     one sub-group per band group will be used
     custom distributed-memory algorithm (size of sub-group:  2*  2 procs)


     Parallelization info
     --------------------
     sticks:   dense  smooth     PW     G-vecs:    dense   smooth      PW
     Min        3650    1459    395               331396    83793   11813
     Max        3651    1460    396               331401    83796   11816
     Sum       14601    5837   1581              1325593   335179   47257

     Using Slab Decomposition



     bravais-lattice index     =            0
     lattice parameter (alat)  =      15.1392  a.u.
     unit-cell volume          =    3469.8303 (a.u.)^3
     number of atoms/cell      =           40
     number of atomic types    =            4
     number of electrons       =       344.00
     number of Kohn-Sham states=          206
     kinetic-energy cutoff     =      80.0000  Ry
     charge density cutoff     =     800.0000  Ry
     scf convergence threshold =      1.0E-06
     mixing beta               =       0.7000
     number of iterations used =            8  plain     mixing
     Exchange-correlation= SLA  PW   PSX  PSC
                           (   1   4  10   8   0   0   0)

     celldm(1)=  15.139194  celldm(2)=   0.000000  celldm(3)=   0.000000
     celldm(4)=   0.000000  celldm(5)=   0.000000  celldm(6)=   0.000000

     crystal axes: (cart. coord. in units of alat)
               a(1) = (   1.000000   0.000000   0.000000 )  
               a(2) = (   0.000000   1.000000   0.000000 )  
               a(3) = (   0.000000   0.000000   1.000000 )  

     reciprocal axes: (cart. coord. in units 2 pi/alat)
               b(1) = (  1.000000  0.000000  0.000000 )  
               b(2) = (  0.000000  1.000000  0.000000 )  
               b(3) = (  0.000000  0.000000  1.000000 )  


     PseudoPot. # 1 for Sr read from file:
     /home/shamitadessai2507/calculations/pseudopotential_lib/Shamita/pbesol/sr_pbesol_v1.uspp.F.UPF
     MD5 check sum: 635bff1625df5273dba4129a01ed8c82
     Pseudo is Ultrasoft + core correction, Zval = 10.0
     Generated by new atomic code, or converted to UPF format
     Using radial grid of  883 points,  6 beta functions with: 
                l(1) =   0
                l(2) =   0
                l(3) =   1
                l(4) =   1
                l(5) =   2
                l(6) =   2
     Q(r) pseudized with  6 coefficients,  rinner =    1.400   1.400   1.400
                                                       1.400   1.400

     PseudoPot. # 2 for Fe read from file:
     /home/shamitadessai2507/calculations/pseudopotential_lib/Shamita/pbesol/fe_pbesol_v1.5.uspp.F.UPF
     MD5 check sum: a3f38e9a1a818e424be8f97771a26c64
     Pseudo is Ultrasoft + core correction, Zval = 16.0
     Generated by new atomic code, or converted to UPF format
     Using radial grid of  861 points,  6 beta functions with: 
                l(1) =   0
                l(2) =   0
                l(3) =   1
                l(4) =   1
                l(5) =   2
                l(6) =   2
     Q(r) pseudized with  8 coefficients,  rinner =    1.000   1.000   1.000
                                                       1.000   1.000

     PseudoPot. # 3 for Mo read from file:
     /home/shamitadessai2507/calculations/pseudopotential_lib/Shamita/pbesol/mo_pbesol_v1.uspp.F.UPF
     MD5 check sum: 7da09e9258fac13defe18f4707e85514
     Pseudo is Ultrasoft + core correction, Zval = 14.0
     Generated by new atomic code, or converted to UPF format
     Using radial grid of  889 points,  6 beta functions with: 
                l(1) =   0
                l(2) =   0
                l(3) =   1
                l(4) =   1
                l(5) =   2
                l(6) =   2
     Q(r) pseudized with  6 coefficients,  rinner =    1.000   1.000   1.000
                                                       1.000   1.000

     PseudoPot. # 4 for O  read from file:
     /home/shamitadessai2507/calculations/pseudopotential_lib/Shamita/pbesol/o_pbesol_v1.2.uspp.F.UPF
     MD5 check sum: 501638753501ef6325af9037351f7734
     Pseudo is Ultrasoft + core correction, Zval =  6.0
     Generated by new atomic code, or converted to UPF format
     Using radial grid of  737 points,  5 beta functions with: 
                l(1) =   0
                l(2) =   0
                l(3) =   1
                l(4) =   1
                l(5) =   2
     Q(r) pseudized with  8 coefficients,  rinner =    0.900   0.900   0.900
                                                       0.900   0.900

     atomic species   valence    mass     pseudopotential
        Sr            10.00    87.62000     Sr( 1.00)
        Fe            16.00    55.84500     Fe( 1.00)
        Mo            14.00    95.96000     Mo( 1.00)
        O              6.00    15.99940     O ( 1.00)

     Starting magnetic structure 
     atomic species   magnetization
        Sr           0.000
        Fe           0.500
        Mo           0.500
        O            0.000

     48 Sym. Ops., with inversion, found


                                    s                        frac. trans.

      isym =  1     identity                                     

 cryst.   s( 1) = (     1          0          0      )
                  (     0          1          0      )
                  (     0          0          1      )

 cart.    s( 1) = (  1.0000000  0.0000000  0.0000000 )
                  (  0.0000000  1.0000000  0.0000000 )
                  (  0.0000000  0.0000000  1.0000000 )


      isym =  2     180 deg rotation - cart. axis [0,0,1]        

 cryst.   s( 2) = (    -1          0          0      )
                  (     0         -1          0      )
                  (     0          0          1      )

 cart.    s( 2) = ( -1.0000000  0.0000000  0.0000000 )
                  (  0.0000000 -1.0000000  0.0000000 )
                  (  0.0000000  0.0000000  1.0000000 )


      isym =  3     180 deg rotation - cart. axis [0,1,0]        

 cryst.   s( 3) = (    -1          0          0      )
                  (     0          1          0      )
                  (     0          0         -1      )

 cart.    s( 3) = ( -1.0000000  0.0000000  0.0000000 )
                  (  0.0000000  1.0000000  0.0000000 )
                  (  0.0000000  0.0000000 -1.0000000 )


      isym =  4     180 deg rotation - cart. axis [1,0,0]        

 cryst.   s( 4) = (     1          0          0      )
                  (     0         -1          0      )
                  (     0          0         -1      )

 cart.    s( 4) = (  1.0000000  0.0000000  0.0000000 )
                  (  0.0000000 -1.0000000  0.0000000 )
                  (  0.0000000  0.0000000 -1.0000000 )


      isym =  5     180 deg rotation - cart. axis [1,1,0]        

 cryst.   s( 5) = (     0          1          0      )
                  (     1          0          0      )
                  (     0          0         -1      )

 cart.    s( 5) = (  0.0000000  1.0000000  0.0000000 )
                  (  1.0000000  0.0000000  0.0000000 )
                  (  0.0000000  0.0000000 -1.0000000 )


      isym =  6     180 deg rotation - cart. axis [1,-1,0]       

 cryst.   s( 6) = (     0         -1          0      )
                  (    -1          0          0      )
                  (     0          0         -1      )

 cart.    s( 6) = (  0.0000000 -1.0000000  0.0000000 )
                  ( -1.0000000  0.0000000  0.0000000 )
                  (  0.0000000  0.0000000 -1.0000000 )


      isym =  7      90 deg rotation - cart. axis [0,0,-1]       

 cryst.   s( 7) = (     0         -1          0      )
                  (     1          0          0      )
                  (     0          0          1      )

 cart.    s( 7) = (  0.0000000  1.0000000  0.0000000 )
                  ( -1.0000000  0.0000000  0.0000000 )
                  (  0.0000000  0.0000000  1.0000000 )


      isym =  8      90 deg rotation - cart. axis [0,0,1]        

 cryst.   s( 8) = (     0          1          0      )
                  (    -1          0          0      )
                  (     0          0          1      )

 cart.    s( 8) = (  0.0000000 -1.0000000  0.0000000 )
                  (  1.0000000  0.0000000  0.0000000 )
                  (  0.0000000  0.0000000  1.0000000 )


      isym =  9     180 deg rotation - cart. axis [1,0,1]        

 cryst.   s( 9) = (     0          0          1      )
                  (     0         -1          0      )
                  (     1          0          0      )

 cart.    s( 9) = (  0.0000000  0.0000000  1.0000000 )
                  (  0.0000000 -1.0000000  0.0000000 )
                  (  1.0000000  0.0000000  0.0000000 )


      isym = 10     180 deg rotation - cart. axis [-1,0,1]       

 cryst.   s(10) = (     0          0         -1      )
                  (     0         -1          0      )
                  (    -1          0          0      )

 cart.    s(10) = (  0.0000000  0.0000000 -1.0000000 )
                  (  0.0000000 -1.0000000  0.0000000 )
                  ( -1.0000000  0.0000000  0.0000000 )


      isym = 11      90 deg rotation - cart. axis [0,1,0]        

 cryst.   s(11) = (     0          0         -1      )
                  (     0          1          0      )
                  (     1          0          0      )

 cart.    s(11) = (  0.0000000  0.0000000  1.0000000 )
                  (  0.0000000  1.0000000  0.0000000 )
                  ( -1.0000000  0.0000000  0.0000000 )


      isym = 12      90 deg rotation - cart. axis [0,-1,0]       

 cryst.   s(12) = (     0          0          1      )
                  (     0          1          0      )
                  (    -1          0          0      )

 cart.    s(12) = (  0.0000000  0.0000000 -1.0000000 )
                  (  0.0000000  1.0000000  0.0000000 )
                  (  1.0000000  0.0000000  0.0000000 )


      isym = 13     180 deg rotation - cart. axis [0,1,1]        

 cryst.   s(13) = (    -1          0          0      )
                  (     0          0          1      )
                  (     0          1          0      )

 cart.    s(13) = ( -1.0000000  0.0000000  0.0000000 )
                  (  0.0000000  0.0000000  1.0000000 )
                  (  0.0000000  1.0000000  0.0000000 )


      isym = 14     180 deg rotation - cart. axis [0,1,-1]       

 cryst.   s(14) = (    -1          0          0      )
                  (     0          0         -1      )
                  (     0         -1          0      )

 cart.    s(14) = ( -1.0000000  0.0000000  0.0000000 )
                  (  0.0000000  0.0000000 -1.0000000 )
                  (  0.0000000 -1.0000000  0.0000000 )


      isym = 15      90 deg rotation - cart. axis [-1,0,0]       

 cryst.   s(15) = (     1          0          0      )
                  (     0          0         -1      )
                  (     0          1          0      )

 cart.    s(15) = (  1.0000000  0.0000000  0.0000000 )
                  (  0.0000000  0.0000000  1.0000000 )
                  (  0.0000000 -1.0000000  0.0000000 )


      isym = 16      90 deg rotation - cart. axis [1,0,0]        

 cryst.   s(16) = (     1          0          0      )
                  (     0          0          1      )
                  (     0         -1          0      )

 cart.    s(16) = (  1.0000000  0.0000000  0.0000000 )
                  (  0.0000000  0.0000000 -1.0000000 )
                  (  0.0000000  1.0000000  0.0000000 )


      isym = 17     120 deg rotation - cart. axis [-1,-1,-1]     

 cryst.   s(17) = (     0          0          1      )
                  (     1          0          0      )
                  (     0          1          0      )

 cart.    s(17) = (  0.0000000  1.0000000  0.0000000 )
                  (  0.0000000  0.0000000  1.0000000 )
                  (  1.0000000  0.0000000  0.0000000 )


      isym = 18     120 deg rotation - cart. axis [-1,1,1]       

 cryst.   s(18) = (     0          0         -1      )
                  (    -1          0          0      )
                  (     0          1          0      )

 cart.    s(18) = (  0.0000000 -1.0000000  0.0000000 )
                  (  0.0000000  0.0000000  1.0000000 )
                  ( -1.0000000  0.0000000  0.0000000 )


      isym = 19     120 deg rotation - cart. axis [1,1,-1]       

 cryst.   s(19) = (     0          0         -1      )
                  (     1          0          0      )
                  (     0         -1          0      )

 cart.    s(19) = (  0.0000000  1.0000000  0.0000000 )
                  (  0.0000000  0.0000000 -1.0000000 )
                  ( -1.0000000  0.0000000  0.0000000 )


      isym = 20     120 deg rotation - cart. axis [1,-1,1]       

 cryst.   s(20) = (     0          0          1      )
                  (    -1          0          0      )
                  (     0         -1          0      )

 cart.    s(20) = (  0.0000000 -1.0000000  0.0000000 )
                  (  0.0000000  0.0000000 -1.0000000 )
                  (  1.0000000  0.0000000  0.0000000 )


      isym = 21     120 deg rotation - cart. axis [1,1,1]        

 cryst.   s(21) = (     0          1          0      )
                  (     0          0          1      )
                  (     1          0          0      )

 cart.    s(21) = (  0.0000000  0.0000000  1.0000000 )
                  (  1.0000000  0.0000000  0.0000000 )
                  (  0.0000000  1.0000000  0.0000000 )


      isym = 22     120 deg rotation - cart. axis [-1,1,-1]      

 cryst.   s(22) = (     0         -1          0      )
                  (     0          0         -1      )
                  (     1          0          0      )

 cart.    s(22) = (  0.0000000  0.0000000  1.0000000 )
                  ( -1.0000000  0.0000000  0.0000000 )
                  (  0.0000000 -1.0000000  0.0000000 )


      isym = 23     120 deg rotation - cart. axis [1,-1,-1]      

 cryst.   s(23) = (     0         -1          0      )
                  (     0          0          1      )
                  (    -1          0          0      )

 cart.    s(23) = (  0.0000000  0.0000000 -1.0000000 )
                  ( -1.0000000  0.0000000  0.0000000 )
                  (  0.0000000  1.0000000  0.0000000 )


      isym = 24     120 deg rotation - cart. axis [-1,-1,1]      

 cryst.   s(24) = (     0          1          0      )
                  (     0          0         -1      )
                  (    -1          0          0      )

 cart.    s(24) = (  0.0000000  0.0000000 -1.0000000 )
                  (  1.0000000  0.0000000  0.0000000 )
                  (  0.0000000 -1.0000000  0.0000000 )


      isym = 25     inversion                                    

 cryst.   s(25) = (    -1          0          0      )
                  (     0         -1          0      )
                  (     0          0         -1      )

 cart.    s(25) = ( -1.0000000  0.0000000  0.0000000 )
                  (  0.0000000 -1.0000000  0.0000000 )
                  (  0.0000000  0.0000000 -1.0000000 )


      isym = 26     inv. 180 deg rotation - cart. axis [0,0,1]   

 cryst.   s(26) = (     1          0          0      )
                  (     0          1          0      )
                  (     0          0         -1      )

 cart.    s(26) = (  1.0000000  0.0000000  0.0000000 )
                  (  0.0000000  1.0000000  0.0000000 )
                  (  0.0000000  0.0000000 -1.0000000 )


      isym = 27     inv. 180 deg rotation - cart. axis [0,1,0]   

 cryst.   s(27) = (     1          0          0      )
                  (     0         -1          0      )
                  (     0          0          1      )

 cart.    s(27) = (  1.0000000  0.0000000  0.0000000 )
                  (  0.0000000 -1.0000000  0.0000000 )
                  (  0.0000000  0.0000000  1.0000000 )


      isym = 28     inv. 180 deg rotation - cart. axis [1,0,0]   

 cryst.   s(28) = (    -1          0          0      )
                  (     0          1          0      )
                  (     0          0          1      )

 cart.    s(28) = ( -1.0000000  0.0000000  0.0000000 )
                  (  0.0000000  1.0000000  0.0000000 )
                  (  0.0000000  0.0000000  1.0000000 )


      isym = 29     inv. 180 deg rotation - cart. axis [1,1,0]   

 cryst.   s(29) = (     0         -1          0      )
                  (    -1          0          0      )
                  (     0          0          1      )

 cart.    s(29) = (  0.0000000 -1.0000000  0.0000000 )
                  ( -1.0000000  0.0000000  0.0000000 )
                  (  0.0000000  0.0000000  1.0000000 )


      isym = 30     inv. 180 deg rotation - cart. axis [1,-1,0]  

 cryst.   s(30) = (     0          1          0      )
                  (     1          0          0      )
                  (     0          0          1      )

 cart.    s(30) = (  0.0000000  1.0000000  0.0000000 )
                  (  1.0000000  0.0000000  0.0000000 )
                  (  0.0000000  0.0000000  1.0000000 )


      isym = 31     inv.  90 deg rotation - cart. axis [0,0,-1]  

 cryst.   s(31) = (     0          1          0      )
                  (    -1          0          0      )
                  (     0          0         -1      )

 cart.    s(31) = (  0.0000000 -1.0000000  0.0000000 )
                  (  1.0000000  0.0000000  0.0000000 )
                  (  0.0000000  0.0000000 -1.0000000 )


      isym = 32     inv.  90 deg rotation - cart. axis [0,0,1]   

 cryst.   s(32) = (     0         -1          0      )
                  (     1          0          0      )
                  (     0          0         -1      )

 cart.    s(32) = (  0.0000000  1.0000000  0.0000000 )
                  ( -1.0000000  0.0000000  0.0000000 )
                  (  0.0000000  0.0000000 -1.0000000 )


      isym = 33     inv. 180 deg rotation - cart. axis [1,0,1]   

 cryst.   s(33) = (     0          0         -1      )
                  (     0          1          0      )
                  (    -1          0          0      )

 cart.    s(33) = (  0.0000000  0.0000000 -1.0000000 )
                  (  0.0000000  1.0000000  0.0000000 )
                  ( -1.0000000  0.0000000  0.0000000 )


      isym = 34     inv. 180 deg rotation - cart. axis [-1,0,1]  

 cryst.   s(34) = (     0          0          1      )
                  (     0          1          0      )
                  (     1          0          0      )

 cart.    s(34) = (  0.0000000  0.0000000  1.0000000 )
                  (  0.0000000  1.0000000  0.0000000 )
                  (  1.0000000  0.0000000  0.0000000 )


      isym = 35     inv.  90 deg rotation - cart. axis [0,1,0]   

 cryst.   s(35) = (     0          0          1      )
                  (     0         -1          0      )
                  (    -1          0          0      )

 cart.    s(35) = (  0.0000000  0.0000000 -1.0000000 )
                  (  0.0000000 -1.0000000  0.0000000 )
                  (  1.0000000  0.0000000  0.0000000 )


      isym = 36     inv.  90 deg rotation - cart. axis [0,-1,0]  

 cryst.   s(36) = (     0          0         -1      )
                  (     0         -1          0      )
                  (     1          0          0      )

 cart.    s(36) = (  0.0000000  0.0000000  1.0000000 )
                  (  0.0000000 -1.0000000  0.0000000 )
                  ( -1.0000000  0.0000000  0.0000000 )


      isym = 37     inv. 180 deg rotation - cart. axis [0,1,1]   

 cryst.   s(37) = (     1          0          0      )
                  (     0          0         -1      )
                  (     0         -1          0      )

 cart.    s(37) = (  1.0000000  0.0000000  0.0000000 )
                  (  0.0000000  0.0000000 -1.0000000 )
                  (  0.0000000 -1.0000000  0.0000000 )


      isym = 38     inv. 180 deg rotation - cart. axis [0,1,-1]  

 cryst.   s(38) = (     1          0          0      )
                  (     0          0          1      )
                  (     0          1          0      )

 cart.    s(38) = (  1.0000000  0.0000000  0.0000000 )
                  (  0.0000000  0.0000000  1.0000000 )
                  (  0.0000000  1.0000000  0.0000000 )


      isym = 39     inv.  90 deg rotation - cart. axis [-1,0,0]  

 cryst.   s(39) = (    -1          0          0      )
                  (     0          0          1      )
                  (     0         -1          0      )

 cart.    s(39) = ( -1.0000000  0.0000000  0.0000000 )
                  (  0.0000000  0.0000000 -1.0000000 )
                  (  0.0000000  1.0000000  0.0000000 )


      isym = 40     inv.  90 deg rotation - cart. axis [1,0,0]   

 cryst.   s(40) = (    -1          0          0      )
                  (     0          0         -1      )
                  (     0          1          0      )

 cart.    s(40) = ( -1.0000000  0.0000000  0.0000000 )
                  (  0.0000000  0.0000000  1.0000000 )
                  (  0.0000000 -1.0000000  0.0000000 )


      isym = 41     inv. 120 deg rotation - cart. axis [-1,-1,-1]

 cryst.   s(41) = (     0          0         -1      )
                  (    -1          0          0      )
                  (     0         -1          0      )

 cart.    s(41) = (  0.0000000 -1.0000000  0.0000000 )
                  (  0.0000000  0.0000000 -1.0000000 )
                  ( -1.0000000  0.0000000  0.0000000 )


      isym = 42     inv. 120 deg rotation - cart. axis [-1,1,1]  

 cryst.   s(42) = (     0          0          1      )
                  (     1          0          0      )
                  (     0         -1          0      )

 cart.    s(42) = (  0.0000000  1.0000000  0.0000000 )
                  (  0.0000000  0.0000000 -1.0000000 )
                  (  1.0000000  0.0000000  0.0000000 )


      isym = 43     inv. 120 deg rotation - cart. axis [1,1,-1]  

 cryst.   s(43) = (     0          0          1      )
                  (    -1          0          0      )
                  (     0          1          0      )

 cart.    s(43) = (  0.0000000 -1.0000000  0.0000000 )
                  (  0.0000000  0.0000000  1.0000000 )
                  (  1.0000000  0.0000000  0.0000000 )


      isym = 44     inv. 120 deg rotation - cart. axis [1,-1,1]  

 cryst.   s(44) = (     0          0         -1      )
                  (     1          0          0      )
                  (     0          1          0      )

 cart.    s(44) = (  0.0000000  1.0000000  0.0000000 )
                  (  0.0000000  0.0000000  1.0000000 )
                  ( -1.0000000  0.0000000  0.0000000 )


      isym = 45     inv. 120 deg rotation - cart. axis [1,1,1]   

 cryst.   s(45) = (     0         -1          0      )
                  (     0          0         -1      )
                  (    -1          0          0      )

 cart.    s(45) = (  0.0000000  0.0000000 -1.0000000 )
                  ( -1.0000000  0.0000000  0.0000000 )
                  (  0.0000000 -1.0000000  0.0000000 )


      isym = 46     inv. 120 deg rotation - cart. axis [-1,1,-1] 

 cryst.   s(46) = (     0          1          0      )
                  (     0          0          1      )
                  (    -1          0          0      )

 cart.    s(46) = (  0.0000000  0.0000000 -1.0000000 )
                  (  1.0000000  0.0000000  0.0000000 )
                  (  0.0000000  1.0000000  0.0000000 )


      isym = 47     inv. 120 deg rotation - cart. axis [1,-1,-1] 

 cryst.   s(47) = (     0          1          0      )
                  (     0          0         -1      )
                  (     1          0          0      )

 cart.    s(47) = (  0.0000000  0.0000000  1.0000000 )
                  (  1.0000000  0.0000000  0.0000000 )
                  (  0.0000000 -1.0000000  0.0000000 )


      isym = 48     inv. 120 deg rotation - cart. axis [-1,-1,1] 

 cryst.   s(48) = (     0         -1          0      )
                  (     0          0          1      )
                  (     1          0          0      )

 cart.    s(48) = (  0.0000000  0.0000000  1.0000000 )
                  ( -1.0000000  0.0000000  0.0000000 )
                  (  0.0000000  1.0000000  0.0000000 )


   Cartesian axes

     site n.     atom                  positions (alat units)
         1           Sr  tau(   1) = (   0.2500000   0.2500000   0.2500000  )
         2           Sr  tau(   2) = (   0.7500000   0.7500000   0.7500000  )
         3           Sr  tau(   3) = (   0.7500000   0.2500000   0.2500000  )
         4           Sr  tau(   4) = (   0.2500000   0.7500000   0.7500000  )
         5           Sr  tau(   5) = (   0.7500000   0.7500000   0.2500000  )
         6           Sr  tau(   6) = (   0.2500000   0.2500000   0.7500000  )
         7           Sr  tau(   7) = (   0.2500000   0.7500000   0.2500000  )
         8           Sr  tau(   8) = (   0.7500000   0.2500000   0.7500000  )
         9           Fe  tau(   9) = (   0.0000000   0.0000000   0.0000000  )
        10           Fe  tau(  10) = (   0.5000000   0.5000000   0.0000000  )
        11           Fe  tau(  11) = (   0.5000000   0.0000000   0.5000000  )
        12           Fe  tau(  12) = (   0.0000000   0.5000000   0.5000000  )
        13           Mo  tau(  13) = (   0.0000000   0.0000000   0.5000000  )
        14           Mo  tau(  14) = (   0.5000000   0.0000000   0.0000000  )
        15           Mo  tau(  15) = (   0.0000000   0.5000000   0.0000000  )
        16           Mo  tau(  16) = (   0.5000000   0.5000000   0.5000000  )
        17           O   tau(  17) = (   0.0000000   0.0000000   0.2559348  )
        18           O   tau(  18) = (   0.0000000   0.0000000   0.7440653  )
        19           O   tau(  19) = (   0.2559348   0.0000000   0.0000000  )
        20           O   tau(  20) = (   0.7440653   0.0000000   0.0000000  )
        21           O   tau(  21) = (   0.0000000   0.2559348   0.0000000  )
        22           O   tau(  22) = (   0.0000000   0.7440653   0.0000000  )
        23           O   tau(  23) = (   0.5000000   0.5000000   0.2559348  )
        24           O   tau(  24) = (   0.5000000   0.5000000   0.7440653  )
        25           O   tau(  25) = (   0.7559348   0.5000000   0.0000000  )
        26           O   tau(  26) = (   0.2440653   0.5000000   0.0000000  )
        27           O   tau(  27) = (   0.5000000   0.7559348   0.0000000  )
        28           O   tau(  28) = (   0.5000000   0.2440653   0.0000000  )
        29           O   tau(  29) = (   0.5000000   0.0000000   0.7559348  )
        30           O   tau(  30) = (   0.5000000   0.0000000   0.2440653  )
        31           O   tau(  31) = (   0.7559348   0.0000000   0.5000000  )
        32           O   tau(  32) = (   0.2440653   0.0000000   0.5000000  )
        33           O   tau(  33) = (   0.5000000   0.2559348   0.5000000  )
        34           O   tau(  34) = (   0.5000000   0.7440653   0.5000000  )
        35           O   tau(  35) = (   0.0000000   0.5000000   0.7559348  )
        36           O   tau(  36) = (   0.0000000   0.5000000   0.2440653  )
        37           O   tau(  37) = (   0.2559348   0.5000000   0.5000000  )
        38           O   tau(  38) = (   0.7440653   0.5000000   0.5000000  )
        39           O   tau(  39) = (   0.0000000   0.7559348   0.5000000  )
        40           O   tau(  40) = (   0.0000000   0.2440653   0.5000000  )

   Crystallographic axes

     site n.     atom                  positions (cryst. coord.)
         1           Sr  tau(   1) = (  0.2500000  0.2500000  0.2500000  )
         2           Sr  tau(   2) = (  0.7500000  0.7500000  0.7500000  )
         3           Sr  tau(   3) = (  0.7500000  0.2500000  0.2500000  )
         4           Sr  tau(   4) = (  0.2500000  0.7500000  0.7500000  )
         5           Sr  tau(   5) = (  0.7500000  0.7500000  0.2500000  )
         6           Sr  tau(   6) = (  0.2500000  0.2500000  0.7500000  )
         7           Sr  tau(   7) = (  0.2500000  0.7500000  0.2500000  )
         8           Sr  tau(   8) = (  0.7500000  0.2500000  0.7500000  )
         9           Fe  tau(   9) = (  0.0000000  0.0000000  0.0000000  )
        10           Fe  tau(  10) = (  0.5000000  0.5000000  0.0000000  )
        11           Fe  tau(  11) = (  0.5000000  0.0000000  0.5000000  )
        12           Fe  tau(  12) = (  0.0000000  0.5000000  0.5000000  )
        13           Mo  tau(  13) = (  0.0000000  0.0000000  0.5000000  )
        14           Mo  tau(  14) = (  0.5000000  0.0000000  0.0000000  )
        15           Mo  tau(  15) = (  0.0000000  0.5000000  0.0000000  )
        16           Mo  tau(  16) = (  0.5000000  0.5000000  0.5000000  )
        17           O   tau(  17) = (  0.0000000  0.0000000  0.2559348  )
        18           O   tau(  18) = (  0.0000000  0.0000000  0.7440653  )
        19           O   tau(  19) = (  0.2559348  0.0000000  0.0000000  )
        20           O   tau(  20) = (  0.7440653  0.0000000  0.0000000  )
        21           O   tau(  21) = (  0.0000000  0.2559348  0.0000000  )
        22           O   tau(  22) = (  0.0000000  0.7440653  0.0000000  )
        23           O   tau(  23) = (  0.5000000  0.5000000  0.2559348  )
        24           O   tau(  24) = (  0.5000000  0.5000000  0.7440653  )
        25           O   tau(  25) = (  0.7559348  0.5000000  0.0000000  )
        26           O   tau(  26) = (  0.2440653  0.5000000  0.0000000  )
        27           O   tau(  27) = (  0.5000000  0.7559348  0.0000000  )
        28           O   tau(  28) = (  0.5000000  0.2440653  0.0000000  )
        29           O   tau(  29) = (  0.5000000  0.0000000  0.7559348  )
        30           O   tau(  30) = (  0.5000000  0.0000000  0.2440653  )
        31           O   tau(  31) = (  0.7559348  0.0000000  0.5000000  )
        32           O   tau(  32) = (  0.2440653  0.0000000  0.5000000  )
        33           O   tau(  33) = (  0.5000000  0.2559348  0.5000000  )
        34           O   tau(  34) = (  0.5000000  0.7440653  0.5000000  )
        35           O   tau(  35) = (  0.0000000  0.5000000  0.7559348  )
        36           O   tau(  36) = (  0.0000000  0.5000000  0.2440653  )
        37           O   tau(  37) = (  0.2559348  0.5000000  0.5000000  )
        38           O   tau(  38) = (  0.7440653  0.5000000  0.5000000  )
        39           O   tau(  39) = (  0.0000000  0.7559348  0.5000000  )
        40           O   tau(  40) = (  0.0000000  0.2440653  0.5000000  )

     number of k points=    20  Marzari-Vanderbilt smearing, width (Ry)=  0.0020
                       cart. coord. in units 2pi/alat
        k(    1) = (   0.0000000   0.0000000   0.0000000), wk =   0.0046296
        k(    2) = (   0.0000000   0.0000000   0.1666667), wk =   0.0277778
        k(    3) = (   0.0000000   0.0000000   0.3333333), wk =   0.0277778
        k(    4) = (   0.0000000   0.0000000  -0.5000000), wk =   0.0138889
        k(    5) = (   0.0000000   0.1666667   0.1666667), wk =   0.0555556
        k(    6) = (   0.0000000   0.1666667   0.3333333), wk =   0.1111111
        k(    7) = (   0.0000000   0.1666667  -0.5000000), wk =   0.0555556
        k(    8) = (   0.0000000   0.3333333   0.3333333), wk =   0.0555556
        k(    9) = (   0.0000000   0.3333333  -0.5000000), wk =   0.0555556
        k(   10) = (   0.0000000  -0.5000000  -0.5000000), wk =   0.0138889
        k(   11) = (   0.1666667   0.1666667   0.1666667), wk =   0.0370370
        k(   12) = (   0.1666667   0.1666667   0.3333333), wk =   0.1111111
        k(   13) = (   0.1666667   0.1666667  -0.5000000), wk =   0.0555556
        k(   14) = (   0.1666667   0.3333333   0.3333333), wk =   0.1111111
        k(   15) = (   0.1666667   0.3333333  -0.5000000), wk =   0.1111111
        k(   16) = (   0.1666667  -0.5000000  -0.5000000), wk =   0.0277778
        k(   17) = (   0.3333333   0.3333333   0.3333333), wk =   0.0370370
        k(   18) = (   0.3333333   0.3333333  -0.5000000), wk =   0.0555556
        k(   19) = (   0.3333333  -0.5000000  -0.5000000), wk =   0.0277778
        k(   20) = (  -0.5000000  -0.5000000  -0.5000000), wk =   0.0046296

                       cryst. coord.
        k(    1) = (   0.0000000   0.0000000   0.0000000), wk =   0.0046296
        k(    2) = (   0.0000000   0.0000000   0.1666667), wk =   0.0277778
        k(    3) = (   0.0000000   0.0000000   0.3333333), wk =   0.0277778
        k(    4) = (   0.0000000   0.0000000  -0.5000000), wk =   0.0138889
        k(    5) = (   0.0000000   0.1666667   0.1666667), wk =   0.0555556
        k(    6) = (   0.0000000   0.1666667   0.3333333), wk =   0.1111111
        k(    7) = (   0.0000000   0.1666667  -0.5000000), wk =   0.0555556
        k(    8) = (   0.0000000   0.3333333   0.3333333), wk =   0.0555556
        k(    9) = (   0.0000000   0.3333333  -0.5000000), wk =   0.0555556
        k(   10) = (   0.0000000  -0.5000000  -0.5000000), wk =   0.0138889
        k(   11) = (   0.1666667   0.1666667   0.1666667), wk =   0.0370370
        k(   12) = (   0.1666667   0.1666667   0.3333333), wk =   0.1111111
        k(   13) = (   0.1666667   0.1666667  -0.5000000), wk =   0.0555556
        k(   14) = (   0.1666667   0.3333333   0.3333333), wk =   0.1111111
        k(   15) = (   0.1666667   0.3333333  -0.5000000), wk =   0.1111111
        k(   16) = (   0.1666667  -0.5000000  -0.5000000), wk =   0.0277778
        k(   17) = (   0.3333333   0.3333333   0.3333333), wk =   0.0370370
        k(   18) = (   0.3333333   0.3333333  -0.5000000), wk =   0.0555556
        k(   19) = (   0.3333333  -0.5000000  -0.5000000), wk =   0.0277778
        k(   20) = (  -0.5000000  -0.5000000  -0.5000000), wk =   0.0046296

     Dense  grid:  1325593 G-vectors     FFT dimensions: ( 144, 144, 144)

     Smooth grid:   335179 G-vectors     FFT dimensions: (  90,  90,  90)

     Dynamical RAM for                 wfc:      32.95 MB

     Dynamical RAM for     wfc (w. buffer):    1350.75 MB

     Dynamical RAM for           str. fact:      20.23 MB

     Dynamical RAM for           local pot:       0.00 MB

     Dynamical RAM for          nlocal pot:      95.96 MB

     Dynamical RAM for                qrad:       9.07 MB

     Dynamical RAM for          rho,v,vnew:      64.51 MB

     Dynamical RAM for               rhoin:      21.50 MB

     Dynamical RAM for            rho*nmix:     161.82 MB

     Dynamical RAM for           G-vectors:      19.60 MB

     Dynamical RAM for          h,s,v(r/c):      31.08 MB

     Dynamical RAM for          <psi|beta>:       1.89 MB

     Dynamical RAM for                 psi:     263.56 MB

     Dynamical RAM for                hpsi:     263.56 MB

     Dynamical RAM for                spsi:     263.56 MB

     Dynamical RAM for      wfcinit/wfcrot:      66.86 MB

     Dynamical RAM for           addusdens:    1066.97 MB

     Dynamical RAM for          addusforce:    1299.77 MB

     Dynamical RAM for         addusstress:    1023.99 MB

     Estimated static dynamical RAM per process >       1.60 GB

     Estimated max dynamical RAM per process >       3.03 GB

     Estimated total dynamical RAM >      12.12 GB

     Check: negative core charge=   -0.000003
     Generating pointlists ...
     new r_m :   0.1459 (alat units)  2.2082 (a.u.) for type    1
     new r_m :   0.1056 (alat units)  1.5983 (a.u.) for type    2
     new r_m :   0.1007 (alat units)  1.5242 (a.u.) for type    3
     new r_m :   0.1007 (alat units)  1.5242 (a.u.) for type    4

     Initial potential from superposition of free atoms

     starting charge     339.7499, renormalised to     344.0000

     negative rho (up, down):  2.569E-01 2.577E-01
     Starting wfcs are random

     total cpu time spent up to now is      635.5 secs

     Self-consistent Calculation

     iteration #  1     ecut=    80.00 Ry     beta= 0.70
     Davidson diagonalization with overlap

---- Real-time Memory Report at c_bands before calling an iterative solver
          1700 MiB given to the printing process from OS
             0 MiB allocation reported by mallinfo(arena+hblkhd)
         23896 MiB available memory on the node where the printing process lives
------------------
     ethr =  1.00E-02,  avg # of iterations =  6.2

     negative rho (up, down):  2.596E-01 2.615E-01

     total cpu time spent up to now is     8181.0 secs

     total energy              =   -2884.87494918 Ry
     estimated scf accuracy    <      20.84631770 Ry

     total magnetization       =    16.00 Bohr mag/cell
     absolute magnetization    =    17.15 Bohr mag/cell

     iteration #  2     ecut=    80.00 Ry     beta= 0.70
     Davidson diagonalization with overlap

---- Real-time Memory Report at c_bands before calling an iterative solver
          2686 MiB given to the printing process from OS
             0 MiB allocation reported by mallinfo(arena+hblkhd)
         23669 MiB available memory on the node where the printing process lives
------------------
     ethr =  6.06E-03,  avg # of iterations =  4.3

     negative rho (up, down):  2.598E-01 2.604E-01

     total cpu time spent up to now is    11288.1 secs

     total energy              =   -2869.63148278 Ry
     estimated scf accuracy    <     225.21456327 Ry

     total magnetization       =     0.47 Bohr mag/cell
     absolute magnetization    =     2.81 Bohr mag/cell

     iteration #  3     ecut=    80.00 Ry     beta= 0.70
     Davidson diagonalization with overlap

---- Real-time Memory Report at c_bands before calling an iterative solver
          2691 MiB given to the printing process from OS
             0 MiB allocation reported by mallinfo(arena+hblkhd)
         23646 MiB available memory on the node where the printing process lives
------------------
     ethr =  6.06E-03,  avg # of iterations =  4.0

     negative rho (up, down):  2.614E-01 2.619E-01

     total cpu time spent up to now is    14187.2 secs

     total energy              =   -2890.45408952 Ry
     estimated scf accuracy    <      72.94734836 Ry

     total magnetization       =     4.69 Bohr mag/cell
     absolute magnetization    =     5.21 Bohr mag/cell

     iteration #  4     ecut=    80.00 Ry     beta= 0.70
     Davidson diagonalization with overlap

---- Real-time Memory Report at c_bands before calling an iterative solver
          2697 MiB given to the printing process from OS
             0 MiB allocation reported by mallinfo(arena+hblkhd)
         23625 MiB available memory on the node where the printing process lives
------------------
     ethr =  6.06E-03,  avg # of iterations =  2.0

     negative rho (up, down):  2.648E-01 2.652E-01

     total cpu time spent up to now is    15950.9 secs

     total energy              =   -2895.05578658 Ry
     estimated scf accuracy    <       2.61529590 Ry

     total magnetization       =    16.00 Bohr mag/cell
     absolute magnetization    =    16.19 Bohr mag/cell

     iteration #  5     ecut=    80.00 Ry     beta= 0.70
     Davidson diagonalization with overlap

---- Real-time Memory Report at c_bands before calling an iterative solver
          2702 MiB given to the printing process from OS
             0 MiB allocation reported by mallinfo(arena+hblkhd)
         23610 MiB available memory on the node where the printing process lives
------------------
     ethr =  7.60E-04,  avg # of iterations =  4.5

     negative rho (up, down):  2.645E-01 2.647E-01

     total cpu time spent up to now is    18177.2 secs

     total energy              =   -2895.45793265 Ry
     estimated scf accuracy    <       0.37424581 Ry

     total magnetization       =    16.00 Bohr mag/cell
     absolute magnetization    =    16.54 Bohr mag/cell

     iteration #  6     ecut=    80.00 Ry     beta= 0.70
     Davidson diagonalization with overlap

---- Real-time Memory Report at c_bands before calling an iterative solver
          2707 MiB given to the printing process from OS
             0 MiB allocation reported by mallinfo(arena+hblkhd)
         23585 MiB available memory on the node where the printing process lives
------------------
     ethr =  1.09E-04,  avg # of iterations =  5.1

     negative rho (up, down):  2.646E-01 2.646E-01

     total cpu time spent up to now is    20364.0 secs

     total energy              =   -2895.50861628 Ry
     estimated scf accuracy    <       0.11002324 Ry

     total magnetization       =    16.00 Bohr mag/cell
     absolute magnetization    =    17.57 Bohr mag/cell

     iteration #  7     ecut=    80.00 Ry     beta= 0.70
     Davidson diagonalization with overlap

---- Real-time Memory Report at c_bands before calling an iterative solver
          2712 MiB given to the printing process from OS
             0 MiB allocation reported by mallinfo(arena+hblkhd)
         23565 MiB available memory on the node where the printing process lives
------------------
     c_bands:  1 eigenvalues not converged
     ethr =  3.20E-05,  avg # of iterations =  9.1

     negative rho (up, down):  2.648E-01 2.644E-01

     total cpu time spent up to now is    22452.1 secs

     total energy              =   -2895.42282575 Ry
     estimated scf accuracy    <       2.26075153 Ry

     total magnetization       =    14.07 Bohr mag/cell
     absolute magnetization    =    15.93 Bohr mag/cell

     iteration #  8     ecut=    80.00 Ry     beta= 0.70
     Davidson diagonalization with overlap

---- Real-time Memory Report at c_bands before calling an iterative solver
          2717 MiB given to the printing process from OS
             0 MiB allocation reported by mallinfo(arena+hblkhd)
         23541 MiB available memory on the node where the printing process lives
------------------
     ethr =  3.20E-05,  avg # of iterations =  7.2

     negative rho (up, down):  2.652E-01 2.645E-01

     total cpu time spent up to now is    24439.5 secs

     total energy              =   -2895.55519445 Ry
     estimated scf accuracy    <       0.04592167 Ry

     total magnetization       =    16.00 Bohr mag/cell
     absolute magnetization    =    18.62 Bohr mag/cell

     iteration #  9     ecut=    80.00 Ry     beta= 0.70
     Davidson diagonalization with overlap

---- Real-time Memory Report at c_bands before calling an iterative solver
          2722 MiB given to the printing process from OS
             0 MiB allocation reported by mallinfo(arena+hblkhd)
         23530 MiB available memory on the node where the printing process lives
------------------
     ethr =  1.33E-05,  avg # of iterations =  6.9

     negative rho (up, down):  2.654E-01 2.645E-01

     total cpu time spent up to now is    26303.8 secs

     total energy              =   -2895.55380736 Ry
     estimated scf accuracy    <       0.04844199 Ry

     total magnetization       =    16.00 Bohr mag/cell
     absolute magnetization    =    18.82 Bohr mag/cell

     iteration # 10     ecut=    80.00 Ry     beta= 0.70
     Davidson diagonalization with overlap

---- Real-time Memory Report at c_bands before calling an iterative solver
          2727 MiB given to the printing process from OS
             0 MiB allocation reported by mallinfo(arena+hblkhd)
         23508 MiB available memory on the node where the printing process lives
------------------
     c_bands:  1 eigenvalues not converged
     ethr =  1.33E-05,  avg # of iterations =  6.4

     negative rho (up, down):  2.655E-01 2.645E-01

     total cpu time spent up to now is    28081.7 secs

     total energy              =   -2895.55778751 Ry
     estimated scf accuracy    <       0.01334036 Ry

     total magnetization       =    16.00 Bohr mag/cell
     absolute magnetization    =    18.88 Bohr mag/cell

     iteration # 11     ecut=    80.00 Ry     beta= 0.70
     Davidson diagonalization with overlap

---- Real-time Memory Report at c_bands before calling an iterative solver
          2727 MiB given to the printing process from OS
             0 MiB allocation reported by mallinfo(arena+hblkhd)
         23508 MiB available memory on the node where the printing process lives
------------------
     ethr =  3.88E-06,  avg # of iterations =  6.2

     negative rho (up, down):  2.654E-01 2.643E-01

     total cpu time spent up to now is    29957.4 secs

     total energy              =   -2895.55896256 Ry
     estimated scf accuracy    <       0.00516181 Ry

     total magnetization       =    16.00 Bohr mag/cell
     absolute magnetization    =    18.96 Bohr mag/cell

     iteration # 12     ecut=    80.00 Ry     beta= 0.70
     Davidson diagonalization with overlap

---- Real-time Memory Report at c_bands before calling an iterative solver
          2727 MiB given to the printing process from OS
             0 MiB allocation reported by mallinfo(arena+hblkhd)
         23499 MiB available memory on the node where the printing process lives
------------------
     ethr =  1.50E-06,  avg # of iterations =  4.5

     negative rho (up, down):  2.654E-01 2.643E-01

     total cpu time spent up to now is    31794.5 secs

     total energy              =   -2895.55954311 Ry
     estimated scf accuracy    <       0.00096624 Ry

     total magnetization       =    16.00 Bohr mag/cell
     absolute magnetization    =    19.09 Bohr mag/cell

     iteration # 13     ecut=    80.00 Ry     beta= 0.70
     Davidson diagonalization with overlap

---- Real-time Memory Report at c_bands before calling an iterative solver
          2727 MiB given to the printing process from OS
             0 MiB allocation reported by mallinfo(arena+hblkhd)
         23508 MiB available memory on the node where the printing process lives
------------------
     ethr =  2.81E-07,  avg # of iterations =  2.5

     negative rho (up, down):  2.654E-01 2.643E-01

     total cpu time spent up to now is    33575.7 secs

     total energy              =   -2895.55959929 Ry
     estimated scf accuracy    <       0.00039238 Ry

     total magnetization       =    16.00 Bohr mag/cell
     absolute magnetization    =    19.12 Bohr mag/cell

     iteration # 14     ecut=    80.00 Ry     beta= 0.70
     Davidson diagonalization with overlap

---- Real-time Memory Report at c_bands before calling an iterative solver
          2727 MiB given to the printing process from OS
             0 MiB allocation reported by mallinfo(arena+hblkhd)
         23504 MiB available memory on the node where the printing process lives
------------------
     ethr =  1.14E-07,  avg # of iterations =  1.4

     negative rho (up, down):  2.654E-01 2.643E-01

     total cpu time spent up to now is    35235.8 secs

     total energy              =   -2895.55961575 Ry
     estimated scf accuracy    <       0.00007815 Ry

     total magnetization       =    16.00 Bohr mag/cell
     absolute magnetization    =    19.14 Bohr mag/cell

     iteration # 15     ecut=    80.00 Ry     beta= 0.70
     Davidson diagonalization with overlap

---- Real-time Memory Report at c_bands before calling an iterative solver
          2727 MiB given to the printing process from OS
             0 MiB allocation reported by mallinfo(arena+hblkhd)
         23509 MiB available memory on the node where the printing process lives
------------------
     ethr =  2.27E-08,  avg # of iterations =  1.6

     negative rho (up, down):  2.654E-01 2.643E-01

     total cpu time spent up to now is    36907.8 secs

     total energy              =   -2895.55962035 Ry
     estimated scf accuracy    <       0.00002082 Ry

     total magnetization       =    16.00 Bohr mag/cell
     absolute magnetization    =    19.13 Bohr mag/cell

     iteration # 16     ecut=    80.00 Ry     beta= 0.70
     Davidson diagonalization with overlap

---- Real-time Memory Report at c_bands before calling an iterative solver
          2727 MiB given to the printing process from OS
             0 MiB allocation reported by mallinfo(arena+hblkhd)
         23504 MiB available memory on the node where the printing process lives
------------------
     ethr =  6.05E-09,  avg # of iterations =  2.1

     negative rho (up, down):  2.654E-01 2.643E-01

     total cpu time spent up to now is    38591.6 secs

     total energy              =   -2895.55962131 Ry
     estimated scf accuracy    <       0.00000622 Ry

     total magnetization       =    16.00 Bohr mag/cell
     absolute magnetization    =    19.13 Bohr mag/cell

     iteration # 17     ecut=    80.00 Ry     beta= 0.70
     Davidson diagonalization with overlap

---- Real-time Memory Report at c_bands before calling an iterative solver
          2727 MiB given to the printing process from OS
             0 MiB allocation reported by mallinfo(arena+hblkhd)
         23506 MiB available memory on the node where the printing process lives
------------------
     ethr =  1.81E-09,  avg # of iterations =  2.5

     negative rho (up, down):  2.654E-01 2.643E-01

     Magnetic moment per site  (integrated on atomic sphere of radius R)
     atom   1 (R=0.146)  charge=  7.6668  magn= -0.0045
     atom   2 (R=0.146)  charge=  7.6668  magn= -0.0045
     atom   3 (R=0.146)  charge=  7.6668  magn= -0.0045
     atom   4 (R=0.146)  charge=  7.6668  magn= -0.0045
     atom   5 (R=0.146)  charge=  7.6668  magn= -0.0045
     atom   6 (R=0.146)  charge=  7.6668  magn= -0.0045
     atom   7 (R=0.146)  charge=  7.6668  magn= -0.0045
     atom   8 (R=0.146)  charge=  7.6668  magn= -0.0045
     atom   9 (R=0.106)  charge= 13.2266  magn=  3.5727
     atom  10 (R=0.106)  charge= 13.2264  magn=  3.5729
     atom  11 (R=0.106)  charge= 13.2264  magn=  3.5729
     atom  12 (R=0.106)  charge= 13.2264  magn=  3.5729
     atom  13 (R=0.101)  charge=  8.8504  magn= -0.1977
     atom  14 (R=0.101)  charge=  8.8504  magn= -0.1977
     atom  15 (R=0.101)  charge=  8.8504  magn= -0.1977
     atom  16 (R=0.101)  charge=  8.8504  magn= -0.1977
     atom  17 (R=0.101)  charge=  5.3592  magn=  0.0858
     atom  18 (R=0.101)  charge=  5.3592  magn=  0.0858
     atom  19 (R=0.101)  charge=  5.3592  magn=  0.0858
     atom  20 (R=0.101)  charge=  5.3592  magn=  0.0858
     atom  21 (R=0.101)  charge=  5.3592  magn=  0.0858
     atom  22 (R=0.101)  charge=  5.3592  magn=  0.0858
     atom  23 (R=0.101)  charge=  5.3592  magn=  0.0858
     atom  24 (R=0.101)  charge=  5.3592  magn=  0.0858
     atom  25 (R=0.101)  charge=  5.3593  magn=  0.0858
     atom  26 (R=0.101)  charge=  5.3593  magn=  0.0858
     atom  27 (R=0.101)  charge=  5.3593  magn=  0.0858
     atom  28 (R=0.101)  charge=  5.3593  magn=  0.0858
     atom  29 (R=0.101)  charge=  5.3593  magn=  0.0858
     atom  30 (R=0.101)  charge=  5.3593  magn=  0.0858
     atom  31 (R=0.101)  charge=  5.3593  magn=  0.0858
     atom  32 (R=0.101)  charge=  5.3593  magn=  0.0858
     atom  33 (R=0.101)  charge=  5.3592  magn=  0.0858
     atom  34 (R=0.101)  charge=  5.3592  magn=  0.0858
     atom  35 (R=0.101)  charge=  5.3593  magn=  0.0858
     atom  36 (R=0.101)  charge=  5.3593  magn=  0.0858
     atom  37 (R=0.101)  charge=  5.3592  magn=  0.0858
     atom  38 (R=0.101)  charge=  5.3592  magn=  0.0858
     atom  39 (R=0.101)  charge=  5.3593  magn=  0.0858
     atom  40 (R=0.101)  charge=  5.3593  magn=  0.0858

     total cpu time spent up to now is    40402.0 secs

     End of self-consistent calculation

 ------ SPIN UP ------------


          k = 0.0000 0.0000 0.0000 ( 41923 PWs)   bands (ev):

   -78.7267 -78.7257 -78.7257 -78.7257 -51.6381 -51.6381 -51.6381 -51.6376
   -44.8650 -44.8650 -44.8650 -44.8641 -44.8641 -44.8641 -44.8641 -44.8641
   -44.8641 -44.8640 -44.8640 -44.8640 -25.7760 -25.7760 -25.7760 -25.7743
   -25.7743 -25.7743 -25.7742 -25.7742 -25.7742 -25.7738 -25.7738 -25.7738
   -23.4032 -23.3847 -23.3847 -23.3847 -23.3732 -23.3732 -23.3732 -23.3601
    -8.0374  -8.0374  -8.0373  -7.8909  -7.3136  -7.3136  -7.3136  -7.0284
    -7.0284  -7.0215  -7.0215  -7.0215  -7.0214  -7.0214  -7.0214  -6.9981
    -6.9980  -6.9980  -6.6436  -6.6436  -6.6436  -6.6097  -6.6097  -6.6097
    -5.6021  -5.6021  -5.6021  -5.3949  -5.3949  -5.3949  -5.3588  -5.3588
    -5.3588  -5.3588  -5.3588  -5.3588  -5.3151  -5.3151  -5.3151  -5.0558
    -5.0558  -5.0558  -5.0558  -5.0558  -5.0558  -4.9404  -4.9404  -4.9404
     3.6719   3.6722   3.6722   4.1349   4.3215   4.3215   4.3215   4.3325
     4.3325   4.5203   4.5203   4.5203   4.7134   4.7134   4.7138   5.1875
     5.1875   5.1875   5.8661   5.8661   5.8661   5.8663   5.8663   5.8663
     6.3729   6.3729   6.3729   6.4361   6.4361   6.4361   6.4361   6.4361
     6.4361   6.5228   6.5228   6.5228   6.5232   6.5232   6.5232   6.8357
     6.8357   6.8357   7.3529   7.3529   7.3529   7.5181   7.5181   7.5181
     7.7633   7.7633   7.7633   7.7634   7.7634   7.7634   7.8617   7.8617
     7.8617   7.8670   7.8670   7.8670   8.2152   8.2152   8.2152   8.4504
     8.4504   8.4504   8.4504   8.4504   8.4504   8.7608   8.7608   8.7608
     9.2379   9.2379   9.2379   9.3116   9.3116   9.3116   9.3118   9.3118
     9.3118   9.3120   9.3120   9.3120   9.3250   9.3250   9.3286   9.3286
     9.3288   9.8981   9.8981   9.8985  12.0306  12.0306  12.0306  12.1955
    12.1955  12.1955  12.7609  12.7609  12.7609  12.7612  12.7612  12.7612
    14.6983  14.6983  14.7217  14.9688  14.9691  14.9691  15.9975  15.9975
    15.9975  16.4015  16.4016  16.4112  16.4112  16.4112

     occupation numbers 
     1.0000   1.0000   1.0000   1.0000   1.0000   1.0000   1.0000   1.0000
     1.0000   1.0000   1.0000   1.0000   1.0000   1.0000   1.0000   1.0000
     1.0000   1.0000   1.0000   1.0000   1.0000   1.0000   1.0000   1.0000
     1.0000   1.0000   1.0000   1.0000   1.0000   1.0000   1.0000   1.0000
     1.0000   1.0000   1.0000   1.0000   1.0000   1.0000   1.0000   1.0000
     1.0000   1.0000   1.0000   1.0000   1.0000   1.0000   1.0000   1.0000
     1.0000   1.0000   1.0000   1.0000   1.0000   1.0000   1.0000   1.0000
     1.0000   1.0000   1.0000   1.0000   1.0000   1.0000   1.0000   1.0000
     1.0000   1.0000   1.0000   1.0000   1.0000   1.0000   1.0000   1.0000
     1.0000   1.0000   1.0000   1.0000   1.0000   1.0000   1.0000   1.0000
     1.0000   1.0000   1.0000   1.0000   1.0000   1.0000   1.0000   1.0000
     1.0000   1.0000   1.0000   1.0000   1.0000   1.0000   1.0000   1.0000
     1.0000   1.0000   1.0000   1.0000   1.0000   1.0000   1.0000   1.0000
     1.0000   1.0000   1.0000   1.0000   1.0000   1.0000   1.0000   1.0000
     1.0000   1.0000   1.0000   1.0000   1.0000   1.0000   1.0000   1.0000
     1.0000   1.0000   1.0000   1.0000   1.0000   1.0000   1.0000   1.0000
     1.0000   1.0000   1.0000   1.0000   1.0000   1.0000   1.0000   1.0000
     1.0000   1.0000   1.0000   1.0000   1.0000   1.0000   1.0000   1.0000
     1.0000   1.0000   1.0000   1.0000   1.0000   1.0000   1.0000   1.0000
     1.0000   1.0000   1.0000   1.0000   1.0000   1.0000   1.0000   1.0000
     1.0000   1.0000   1.0000   1.0000   1.0000   1.0000   1.0000   1.0000
     1.0000   1.0000   1.0000   1.0000   1.0000   1.0000   1.0000   1.0000
     1.0000   1.0000   1.0000   1.0000   0.0000   0.0000   0.0000   0.0000
     0.0000   0.0000   0.0000   0.0000   0.0000   0.0000   0.0000   0.0000
     0.0000   0.0000   0.0000   0.0000   0.0000   0.0000   0.0000   0.0000
     0.0000   0.0000   0.0000   0.0000   0.0000   0.0000

          k = 0.0000 0.0000 0.1667 ( 41971 PWs)   bands (ev):

   -78.7267 -78.7257 -78.7257 -78.7257 -51.6381 -51.6381 -51.6381 -51.6376
   -44.8650 -44.8650 -44.8650 -44.8641 -44.8641 -44.8641 -44.8641 -44.8641
   -44.8641 -44.8640 -44.8640 -44.8640 -25.7758 -25.7758 -25.7758 -25.7744
   -25.7744 -25.7743 -25.7743 -25.7742 -25.7742 -25.7739 -25.7738 -25.7738
   -23.4020 -23.3859 -23.3839 -23.3839 -23.3740 -23.3740 -23.3723 -23.3610
    -8.0194  -8.0047  -8.0046  -7.8893  -7.4030  -7.4030  -7.2965  -7.0594
    -7.0592  -7.0590  -7.0263  -7.0010  -7.0010  -7.0001  -6.9998  -6.9998
    -6.8983  -6.8982  -6.6741  -6.6741  -6.6576  -6.6498  -6.6498  -6.6229
    -5.5837  -5.5532  -5.5532  -5.3924  -5.3924  -5.3613  -5.3613  -5.3578
    -5.3560  -5.3559  -5.3352  -5.3336  -5.3336  -5.3180  -5.3180  -5.0854
    -5.0854  -5.0728  -5.0728  -5.0546  -5.0545  -4.9654  -4.9521  -4.9521
     3.7183   3.7185   3.7454   4.1728   4.3222   4.3317   4.3655   4.3655
     4.4187   4.5655   4.5851   4.5851   4.7411   4.7412   4.7590   5.1433
     5.2211   5.2211   5.7613   5.7613   5.8033   5.8033   5.8749   5.8751
     6.2205   6.3023   6.3023   6.3336   6.3336   6.3667   6.3667   6.4003
     6.4003   6.4202   6.4202   6.5133   6.5137   6.5916   6.5916   6.7840
     7.0334   7.0334   7.1405   7.3856   7.3856   7.5589   7.6510   7.6510
     7.6758   7.6758   7.6990   7.6990   7.7516   7.7517   7.7972   7.7972
     7.8618   7.8664   7.8950   7.8950   8.1610   8.1981   8.1981   8.3608
     8.3608   8.3672   8.4578   8.4578   8.5380   8.5380   8.7777   8.7777
     9.1899   9.1899   9.2427   9.2438   9.2438   9.2818   9.2818   9.2941
     9.2941   9.3067   9.3094   9.3097   9.3254   9.3285   9.5769   9.5770
     9.7310   9.9461   9.9461  10.1031  12.0400  12.0540  12.0540  12.1825
    12.2168  12.2168  12.6915  12.6915  12.7107  12.7107  12.7604  12.7607
    14.7986  14.8109  14.8839  15.0513  15.0747  15.0749  15.9957  16.1237
    16.1237  16.2775  16.2821  16.4614  16.4614  16.5190

     occupation numbers 
     1.0000   1.0000   1.0000   1.0000   1.0000   1.0000   1.0000   1.0000
     1.0000   1.0000   1.0000   1.0000   1.0000   1.0000   1.0000   1.0000
     1.0000   1.0000   1.0000   1.0000   1.0000   1.0000   1.0000   1.0000
     1.0000   1.0000   1.0000   1.0000   1.0000   1.0000   1.0000   1.0000
     1.0000   1.0000   1.0000   1.0000   1.0000   1.0000   1.0000   1.0000
     1.0000   1.0000   1.0000   1.0000   1.0000   1.0000   1.0000   1.0000
     1.0000   1.0000   1.0000   1.0000   1.0000   1.0000   1.0000   1.0000
     1.0000   1.0000   1.0000   1.0000   1.0000   1.0000   1.0000   1.0000
     1.0000   1.0000   1.0000   1.0000   1.0000   1.0000   1.0000   1.0000
     1.0000   1.0000   1.0000   1.0000   1.0000   1.0000   1.0000   1.0000
     1.0000   1.0000   1.0000   1.0000   1.0000   1.0000   1.0000   1.0000
     1.0000   1.0000   1.0000   1.0000   1.0000   1.0000   1.0000   1.0000
     1.0000   1.0000   1.0000   1.0000   1.0000   1.0000   1.0000   1.0000
     1.0000   1.0000   1.0000   1.0000   1.0000   1.0000   1.0000   1.0000
     1.0000   1.0000   1.0000   1.0000   1.0000   1.0000   1.0000   1.0000
     1.0000   1.0000   1.0000   1.0000   1.0000   1.0000   1.0000   1.0000
     1.0000   1.0000   1.0000   1.0000   1.0000   1.0000   1.0000   1.0000
     1.0000   1.0000   1.0000   1.0000   1.0000   1.0000   1.0000   1.0000
     1.0000   1.0000   1.0000   1.0000   1.0000   1.0000   1.0000   1.0000
     1.0000   1.0000   1.0000   1.0000   1.0000   1.0000   1.0000   1.0000
     1.0000   1.0000   1.0000   1.0000   1.0000   1.0000   1.0000   1.0000
     1.0000   1.0000   1.0000   1.0000   1.0000   1.0000   1.0000   1.0000
     1.0000   1.0000   1.0000   1.0000   0.0000   0.0000   0.0000   0.0000
     0.0000   0.0000   0.0000   0.0000   0.0000   0.0000   0.0000   0.0000
     0.0000   0.0000   0.0000   0.0000   0.0000   0.0000   0.0000   0.0000
     0.0000   0.0000   0.0000   0.0000   0.0000   0.0000

          k = 0.0000 0.0000 0.3333 ( 41983 PWs)   bands (ev):

   -78.7267 -78.7257 -78.7257 -78.7257 -51.6381 -51.6381 -51.6381 -51.6376
   -44.8650 -44.8650 -44.8650 -44.8641 -44.8641 -44.8641 -44.8641 -44.8641
   -44.8641 -44.8640 -44.8640 -44.8640 -25.7755 -25.7755 -25.7755 -25.7746
   -25.7746 -25.7745 -25.7743 -25.7742 -25.7742 -25.7740 -25.7739 -25.7739
   -23.3986 -23.3893 -23.3818 -23.3818 -23.3761 -23.3761 -23.3699 -23.3634
    -7.9738  -7.9113  -7.9112  -7.8944  -7.5767  -7.5767  -7.2522  -7.1270
    -7.0657  -7.0655  -7.0208  -7.0057  -6.9418  -6.9418  -6.9386  -6.9386
    -6.8006  -6.8006  -6.7523  -6.7523  -6.7445  -6.7445  -6.6829  -6.6569
    -5.5329  -5.4346  -5.4346  -5.3894  -5.3854  -5.3854  -5.3680  -5.3680
    -5.3482  -5.3482  -5.3259  -5.3259  -5.2698  -5.2698  -5.2622  -5.1693
    -5.1693  -5.1208  -5.1208  -5.0468  -5.0468  -5.0371  -4.9807  -4.9806
     3.7978   3.7980   3.9154   4.1596   4.3242   4.3297   4.4637   4.4639
     4.6886   4.7669   4.7742   4.7742   4.8814   4.8815   4.9159   5.0222
     5.3189   5.3189   5.4376   5.4376   5.6488   5.6488   5.8494   5.8933
     5.8935   5.9248   5.9248   6.2305   6.2679   6.2679   6.3524   6.3524
     6.3552   6.3552   6.3750   6.3750   6.4934   6.4938   6.7674   6.7674
     7.1966   7.2082   7.2082   7.3261   7.3261   7.4594   7.4594   7.5321
     7.5321   7.6737   7.6882   7.6882   7.7215   7.7216   7.8624   7.8651
     7.8767   7.9390   7.9391   8.0196   8.0728   8.0728   8.2032   8.2032
     8.4733   8.4733   8.4792   8.4792   8.6396   8.6396   8.7916   8.7916
     9.0810   9.0810   9.1129   9.1129   9.1990   9.1990   9.2386   9.2386
     9.2561   9.2930   9.3050   9.3053   9.3263   9.3281   9.7502   9.7506
    10.1516  10.1518  10.2112  10.4051  12.0667  12.1412  12.1412  12.1487
    12.2905  12.2905  12.5149  12.5149  12.5803  12.5803  12.7593  12.7595
    15.0788  15.1173  15.2946  15.3311  15.3447  15.3449  15.9319  15.9470
    15.9624  16.4763  16.4763  16.6242  16.6243  16.6892

     occupation numbers 
     1.0000   1.0000   1.0000   1.0000   1.0000   1.0000   1.0000   1.0000
     1.0000   1.0000   1.0000   1.0000   1.0000   1.0000   1.0000   1.0000
     1.0000   1.0000   1.0000   1.0000   1.0000   1.0000   1.0000   1.0000
     1.0000   1.0000   1.0000   1.0000   1.0000   1.0000   1.0000   1.0000
     1.0000   1.0000   1.0000   1.0000   1.0000   1.0000   1.0000   1.0000
     1.0000   1.0000   1.0000   1.0000   1.0000   1.0000   1.0000   1.0000
     1.0000   1.0000   1.0000   1.0000   1.0000   1.0000   1.0000   1.0000
     1.0000   1.0000   1.0000   1.0000   1.0000   1.0000   1.0000   1.0000
     1.0000   1.0000   1.0000   1.0000   1.0000   1.0000   1.0000   1.0000
     1.0000   1.0000   1.0000   1.0000   1.0000   1.0000   1.0000   1.0000
     1.0000   1.0000   1.0000   1.0000   1.0000   1.0000   1.0000   1.0000
     1.0000   1.0000   1.0000   1.0000   1.0000   1.0000   1.0000   1.0000
     1.0000   1.0000   1.0000   1.0000   1.0000   1.0000   1.0000   1.0000
     1.0000   1.0000   1.0000   1.0000   1.0000   1.0000   1.0000   1.0000
     1.0000   1.0000   1.0000   1.0000   1.0000   1.0000   1.0000   1.0000
     1.0000   1.0000   1.0000   1.0000   1.0000   1.0000   1.0000   1.0000
     1.0000   1.0000   1.0000   1.0000   1.0000   1.0000   1.0000   1.0000
     1.0000   1.0000   1.0000   1.0000   1.0000   1.0000   1.0000   1.0000
     1.0000   1.0000   1.0000   1.0000   1.0000   1.0000   1.0000   1.0000
     1.0000   1.0000   1.0000   1.0000   1.0000   1.0000   1.0000   1.0000
     1.0000   1.0000   1.0000   1.0000   1.0000   1.0000   1.0000   1.0000
     1.0000   1.0000   1.0000   1.0000   1.0000   1.0000   1.0000   1.0000
     1.0000   1.0000   1.0000   1.0000   0.0000   0.0000   0.0000   0.0000
     0.0000   0.0000   0.0000   0.0000   0.0000   0.0000   0.0000   0.0000
     0.0000   0.0000   0.0000   0.0000   0.0000   0.0000   0.0000   0.0000
     0.0000   0.0000   0.0000   0.0000   0.0000   0.0000

          k = 0.0000 0.0000-0.5000 ( 41900 PWs)   bands (ev):

   -78.7267 -78.7257 -78.7257 -78.7257 -51.6381 -51.6381 -51.6381 -51.6376
   -44.8650 -44.8650 -44.8650 -44.8641 -44.8641 -44.8641 -44.8641 -44.8641
   -44.8641 -44.8640 -44.8640 -44.8640 -25.7752 -25.7752 -25.7751 -25.7750
   -25.7750 -25.7750 -25.7743 -25.7742 -25.7742 -25.7740 -25.7739 -25.7739
   -23.3939 -23.3939 -23.3789 -23.3789 -23.3789 -23.3789 -23.3667 -23.3667
    -7.9239  -7.9237  -7.8000  -7.7998  -7.7198  -7.7197  -7.1945  -7.1943
    -7.0655  -7.0653  -7.0134  -7.0132  -6.8514  -6.8514  -6.8512  -6.8512
    -6.8496  -6.8496  -6.8494  -6.8494  -6.7638  -6.7637  -6.6860  -6.6859
    -5.4620  -5.4620  -5.3773  -5.3773  -5.3773  -5.3773  -5.3395  -5.3395
    -5.3346  -5.3346  -5.2934  -5.2934  -5.2933  -5.2933  -5.1915  -5.1915
    -5.1915  -5.1915  -5.1438  -5.1438  -5.0352  -5.0352  -5.0027  -5.0027
     3.8300   3.8302   4.0721   4.0723   4.3268   4.3271   4.5051   4.5054
     4.8558   4.8560   5.0711   5.0711   5.0713   5.0713   5.0983   5.0984
     5.1150   5.1151   5.4701   5.4701   5.4702   5.4702   5.5937   5.5939
     5.6516   5.6517   5.9030   5.9032   6.3126   6.3126   6.3126   6.3126
     6.3424   6.3424   6.3425   6.3425   6.4830   6.4833   7.0200   7.0200
     7.0202   7.0202   7.3608   7.3608   7.3610   7.3610   7.4805   7.4806
     7.5673   7.5673   7.5674   7.5674   7.7016   7.7017   7.8401   7.8402
     7.8633   7.8638   7.8670   7.8671   8.4697   8.4697   8.4698   8.4698
     8.4716   8.4716   8.4717   8.4717   8.5814   8.5814   8.5814   8.5814
     9.0936   9.0936   9.0938   9.0938   9.1490   9.1490   9.1491   9.1491
     9.2744   9.2746   9.3028   9.3031   9.3271   9.3275   9.7745   9.7749
    10.2736  10.2738  10.4645  10.4647  12.1058  12.1061  12.3064  12.3064
    12.3066  12.3066  12.4215  12.4215  12.4217  12.4217  12.7587  12.7590
    15.4767  15.4767  15.5366  15.5366  15.5371  15.5373  15.6205  15.6206
    16.0963  16.0963  16.7025  16.7027  17.0194  17.0196

     occupation numbers 
     1.0000   1.0000   1.0000   1.0000   1.0000   1.0000   1.0000   1.0000
     1.0000   1.0000   1.0000   1.0000   1.0000   1.0000   1.0000   1.0000
     1.0000   1.0000   1.0000   1.0000   1.0000   1.0000   1.0000   1.0000
     1.0000   1.0000   1.0000   1.0000   1.0000   1.0000   1.0000   1.0000
     1.0000   1.0000   1.0000   1.0000   1.0000   1.0000   1.0000   1.0000
     1.0000   1.0000   1.0000   1.0000   1.0000   1.0000   1.0000   1.0000
     1.0000   1.0000   1.0000   1.0000   1.0000   1.0000   1.0000   1.0000
     1.0000   1.0000   1.0000   1.0000   1.0000   1.0000   1.0000   1.0000
     1.0000   1.0000   1.0000   1.0000   1.0000   1.0000   1.0000   1.0000
     1.0000   1.0000   1.0000   1.0000   1.0000   1.0000   1.0000   1.0000
     1.0000   1.0000   1.0000   1.0000   1.0000   1.0000   1.0000   1.0000
     1.0000   1.0000   1.0000   1.0000   1.0000   1.0000   1.0000   1.0000
     1.0000   1.0000   1.0000   1.0000   1.0000   1.0000   1.0000   1.0000
     1.0000   1.0000   1.0000   1.0000   1.0000   1.0000   1.0000   1.0000
     1.0000   1.0000   1.0000   1.0000   1.0000   1.0000   1.0000   1.0000
     1.0000   1.0000   1.0000   1.0000   1.0000   1.0000   1.0000   1.0000
     1.0000   1.0000   1.0000   1.0000   1.0000   1.0000   1.0000   1.0000
     1.0000   1.0000   1.0000   1.0000   1.0000   1.0000   1.0000   1.0000
     1.0000   1.0000   1.0000   1.0000   1.0000   1.0000   1.0000   1.0000
     1.0000   1.0000   1.0000   1.0000   1.0000   1.0000   1.0000   1.0000
     1.0000   1.0000   1.0000   1.0000   1.0000   1.0000   1.0000   1.0000
     1.0000   1.0000   1.0000   1.0000   1.0000   1.0000   1.0000   1.0000
     1.0000   1.0000   1.0000   1.0000   0.0000   0.0000   0.0000   0.0000
     0.0000   0.0000   0.0000   0.0000   0.0000   0.0000   0.0000   0.0000
     0.0000   0.0000   0.0000   0.0000   0.0000   0.0000   0.0000   0.0000
     0.0000   0.0000   0.0000   0.0000   0.0000   0.0000

          k = 0.0000 0.1667 0.1667 ( 41945 PWs)   bands (ev):

   -78.7267 -78.7257 -78.7257 -78.7257 -51.6381 -51.6381 -51.6381 -51.6376
   -44.8650 -44.8650 -44.8650 -44.8641 -44.8641 -44.8641 -44.8641 -44.8641
   -44.8641 -44.8640 -44.8640 -44.8640 -25.7758 -25.7757 -25.7757 -25.7745
   -25.7744 -25.7743 -25.7743 -25.7743 -25.7742 -25.7740 -25.7739 -25.7738
   -23.4008 -23.3851 -23.3851 -23.3831 -23.3748 -23.3731 -23.3731 -23.3618
    -7.9880  -7.9880  -7.9724  -7.8853  -7.4528  -7.3797  -7.3797  -7.1227
    -7.0709  -7.0590  -7.0589  -7.0451  -6.9814  -6.9813  -6.9189  -6.8947
    -6.8946  -6.8709  -6.7283  -6.6989  -6.6810  -6.6796  -6.6795  -6.5893
    -5.5861  -5.5125  -5.4940  -5.3899  -5.3754  -5.3742  -5.3585  -5.3585
    -5.3409  -5.3408  -5.3386  -5.3361  -5.3361  -5.3210  -5.2935  -5.0956
    -5.0956  -5.0828  -5.0828  -5.0775  -5.0651  -4.9758  -4.9758  -4.9652
     3.7694   3.7947   3.7948   4.2210   4.3679   4.3679   4.4011   4.4088
     4.4223   4.6266   4.6266   4.6398   4.7745   4.7804   4.7806   5.1389
     5.2197   5.2563   5.6964   5.7365   5.7367   5.8095   5.8095   5.8494
     6.1831   6.2463   6.2512   6.2514   6.2612   6.2961   6.3247   6.3600
     6.3868   6.3870   6.3884   6.3884   6.4174   6.5726   6.5727   6.8808
     6.8809   7.1823   7.2598   7.2599   7.4584   7.4673   7.5415   7.5591
     7.7140   7.7140   7.7191   7.7516   7.7517   7.7652   7.7663   7.8060
     7.8786   7.8786   7.8836   7.8837   8.1663   8.2136   8.2136   8.2165
     8.2785   8.3626   8.4730   8.5005   8.5456   8.5456   8.5576   8.7820
     9.1425   9.1700   9.1929   9.1929   9.2129   9.2514   9.2517   9.2688
     9.2710   9.2902   9.2923   9.2923   9.5422   9.5884   9.5886   9.8410
     9.9010   9.9513  10.1506  10.1509  12.0631  12.0631  12.0681  12.1872
    12.2212  12.2255  12.6427  12.6430  12.6762  12.7089  12.7095  12.7095
    14.9105  14.9130  15.0268  15.1526  15.1527  15.1751  16.1019  16.1318
    16.2309  16.3412  16.3412  16.3865  16.3866  16.5276

     occupation numbers 
     1.0000   1.0000   1.0000   1.0000   1.0000   1.0000   1.0000   1.0000
     1.0000   1.0000   1.0000   1.0000   1.0000   1.0000   1.0000   1.0000
     1.0000   1.0000   1.0000   1.0000   1.0000   1.0000   1.0000   1.0000
     1.0000   1.0000   1.0000   1.0000   1.0000   1.0000   1.0000   1.0000
     1.0000   1.0000   1.0000   1.0000   1.0000   1.0000   1.0000   1.0000
     1.0000   1.0000   1.0000   1.0000   1.0000   1.0000   1.0000   1.0000
     1.0000   1.0000   1.0000   1.0000   1.0000   1.0000   1.0000   1.0000
     1.0000   1.0000   1.0000   1.0000   1.0000   1.0000   1.0000   1.0000
     1.0000   1.0000   1.0000   1.0000   1.0000   1.0000   1.0000   1.0000
     1.0000   1.0000   1.0000   1.0000   1.0000   1.0000   1.0000   1.0000
     1.0000   1.0000   1.0000   1.0000   1.0000   1.0000   1.0000   1.0000
     1.0000   1.0000   1.0000   1.0000   1.0000   1.0000   1.0000   1.0000
     1.0000   1.0000   1.0000   1.0000   1.0000   1.0000   1.0000   1.0000
     1.0000   1.0000   1.0000   1.0000   1.0000   1.0000   1.0000   1.0000
     1.0000   1.0000   1.0000   1.0000   1.0000   1.0000   1.0000   1.0000
     1.0000   1.0000   1.0000   1.0000   1.0000   1.0000   1.0000   1.0000
     1.0000   1.0000   1.0000   1.0000   1.0000   1.0000   1.0000   1.0000
     1.0000   1.0000   1.0000   1.0000   1.0000   1.0000   1.0000   1.0000
     1.0000   1.0000   1.0000   1.0000   1.0000   1.0000   1.0000   1.0000
     1.0000   1.0000   1.0000   1.0000   1.0000   1.0000   1.0000   1.0000
     1.0000   1.0000   1.0000   1.0000   1.0000   1.0000   1.0000   1.0000
     1.0000   1.0000   1.0000   1.0000   1.0000   1.0000   1.0000   1.0000
     1.0000   1.0000   1.0000   1.0000   0.0000   0.0000   0.0000   0.0000
     0.0000   0.0000   0.0000   0.0000   0.0000   0.0000   0.0000   0.0000
     0.0000   0.0000   0.0000   0.0000   0.0000   0.0000   0.0000   0.0000
     0.0000   0.0000   0.0000   0.0000   0.0000   0.0000

          k = 0.0000 0.1667 0.3333 ( 41943 PWs)   bands (ev):

   -78.7267 -78.7257 -78.7257 -78.7257 -51.6381 -51.6381 -51.6381 -51.6376
   -44.8650 -44.8650 -44.8650 -44.8641 -44.8641 -44.8641 -44.8641 -44.8641
   -44.8641 -44.8640 -44.8640 -44.8640 -25.7755 -25.7754 -25.7754 -25.7748
   -25.7746 -25.7746 -25.7743 -25.7742 -25.7742 -25.7740 -25.7739 -25.7739
   -23.3975 -23.3884 -23.3829 -23.3810 -23.3770 -23.3752 -23.3707 -23.3642
    -7.9468  -7.8992  -7.8839  -7.8813  -7.5859  -7.5469  -7.3155  -7.1368
    -7.1327  -7.0822  -7.0604  -7.0557  -6.9284  -6.9263  -6.8871  -6.8777
    -6.8207  -6.8193  -6.7874  -6.7639  -6.7579  -6.7227  -6.6773  -6.6017
    -5.5482  -5.4090  -5.4014  -5.3885  -5.3817  -5.3788  -5.3651  -5.3608
    -5.3563  -5.3498  -5.3428  -5.3289  -5.2721  -5.2553  -5.2333  -5.1628
    -5.1622  -5.1259  -5.1223  -5.0711  -5.0604  -5.0436  -5.0016  -4.9976
     3.8595   3.8752   3.9715   4.2121   4.3750   4.4004   4.4844   4.5090
     4.7396   4.7562   4.7873   4.8050   4.8932   4.9200   4.9431   5.0429
     5.3060   5.3602   5.4227   5.4814   5.6428   5.6476   5.8230   5.8364
     5.8411   5.9235   5.9329   6.1767   6.1993   6.2048   6.2628   6.2646
     6.2657   6.3438   6.3444   6.3546   6.4166   6.5220   6.5445   6.7399
     6.9697   7.1190   7.2693   7.2953   7.3022   7.3496   7.4016   7.5710
     7.6013   7.6233   7.7570   7.7653   7.7785   7.8114   7.8142   7.8243
     7.9142   7.9873   8.0141   8.0988   8.1064   8.1305   8.1509   8.1922
     8.2734   8.2926   8.5667   8.5791   8.6072   8.6489   8.6916   8.7756
     9.0097   9.0279   9.0822   9.1026   9.1546   9.1694   9.1970   9.1972
     9.2424   9.2432   9.2816   9.2862   9.5996   9.6004   9.8252   9.9242
    10.2358  10.3080  10.3134  10.4645  12.0887  12.1335  12.1490  12.1640
    12.2710  12.2868  12.4729  12.5152  12.5192  12.5774  12.6998  12.7063
    15.1929  15.2094  15.3857  15.4145  15.4331  15.4359  16.0227  16.0453
    16.0468  16.4555  16.5005  16.5310  16.6885  16.6992

     occupation numbers 
     1.0000   1.0000   1.0000   1.0000   1.0000   1.0000   1.0000   1.0000
     1.0000   1.0000   1.0000   1.0000   1.0000   1.0000   1.0000   1.0000
     1.0000   1.0000   1.0000   1.0000   1.0000   1.0000   1.0000   1.0000
     1.0000   1.0000   1.0000   1.0000   1.0000   1.0000   1.0000   1.0000
     1.0000   1.0000   1.0000   1.0000   1.0000   1.0000   1.0000   1.0000
     1.0000   1.0000   1.0000   1.0000   1.0000   1.0000   1.0000   1.0000
     1.0000   1.0000   1.0000   1.0000   1.0000   1.0000   1.0000   1.0000
     1.0000   1.0000   1.0000   1.0000   1.0000   1.0000   1.0000   1.0000
     1.0000   1.0000   1.0000   1.0000   1.0000   1.0000   1.0000   1.0000
     1.0000   1.0000   1.0000   1.0000   1.0000   1.0000   1.0000   1.0000
     1.0000   1.0000   1.0000   1.0000   1.0000   1.0000   1.0000   1.0000
     1.0000   1.0000   1.0000   1.0000   1.0000   1.0000   1.0000   1.0000
     1.0000   1.0000   1.0000   1.0000   1.0000   1.0000   1.0000   1.0000
     1.0000   1.0000   1.0000   1.0000   1.0000   1.0000   1.0000   1.0000
     1.0000   1.0000   1.0000   1.0000   1.0000   1.0000   1.0000   1.0000
     1.0000   1.0000   1.0000   1.0000   1.0000   1.0000   1.0000   1.0000
     1.0000   1.0000   1.0000   1.0000   1.0000   1.0000   1.0000   1.0000
     1.0000   1.0000   1.0000   1.0000   1.0000   1.0000   1.0000   1.0000
     1.0000   1.0000   1.0000   1.0000   1.0000   1.0000   1.0000   1.0000
     1.0000   1.0000   1.0000   1.0000   1.0000   1.0000   1.0000   1.0000
     1.0000   1.0000   1.0000   1.0000   1.0000   1.0000   1.0000   1.0000
     1.0000   1.0000   1.0000   1.0000   1.0000   1.0000   1.0000   1.0000
     1.0000   1.0000   1.0000   1.0000   0.0000   0.0000   0.0000   0.0000
     0.0000   0.0000   0.0000   0.0000   0.0000   0.0000   0.0000   0.0000
     0.0000   0.0000   0.0000   0.0000   0.0000   0.0000   0.0000   0.0000
     0.0000   0.0000   0.0000   0.0000   0.0000   0.0000

          k = 0.0000 0.1667-0.5000 ( 41904 PWs)   bands (ev):

   -78.7267 -78.7257 -78.7257 -78.7257 -51.6381 -51.6381 -51.6381 -51.6376
   -44.8650 -44.8650 -44.8650 -44.8641 -44.8641 -44.8641 -44.8641 -44.8641
   -44.8641 -44.8640 -44.8640 -44.8640 -25.7752 -25.7751 -25.7751 -25.7750
   -25.7750 -25.7749 -25.7743 -25.7742 -25.7742 -25.7740 -25.7740 -25.7739
   -23.3929 -23.3929 -23.3799 -23.3799 -23.3781 -23.3781 -23.3675 -23.3675
    -7.9043  -7.9042  -7.7912  -7.7911  -7.6918  -7.6917  -7.2271  -7.2270
    -7.1072  -7.1070  -7.0610  -7.0608  -6.8710  -6.8709  -6.8489  -6.8487
    -6.8476  -6.8474  -6.8362  -6.8361  -6.7416  -6.7416  -6.6449  -6.6448
    -5.4788  -5.4788  -5.3745  -5.3745  -5.3724  -5.3723  -5.3521  -5.3521
    -5.3396  -5.3396  -5.2795  -5.2795  -5.2640  -5.2640  -5.1933  -5.1932
    -5.1738  -5.1738  -5.1444  -5.1444  -5.0516  -5.0516  -5.0234  -5.0234
     3.9010   3.9012   4.1299   4.1302   4.3864   4.3866   4.5452   4.5454
     4.8925   4.8928   5.0117   5.0117   5.0842   5.0844   5.0914   5.0915
     5.2314   5.2314   5.4611   5.4612   5.5211   5.5212   5.5918   5.5919
     5.6499   5.6500   5.8332   5.8334   6.1866   6.1867   6.2150   6.2150
     6.3049   6.3049   6.3326   6.3327   6.4607   6.4610   6.7945   6.7946
     6.9823   6.9824   7.0962   7.0963   7.4165   7.4166   7.5182   7.5183
     7.5822   7.5823   7.7099   7.7101   7.7578   7.7578   7.7701   7.7705
     7.9517   7.9518   7.9828   7.9830   8.2337   8.2339   8.4817   8.4818
     8.4833   8.4834   8.5342   8.5343   8.5608   8.5608   8.6020   8.6022
     9.0325   9.0327   9.0421   9.0422   9.0945   9.0947   9.1381   9.1382
     9.2269   9.2270   9.2811   9.2814   9.6057   9.6060   9.8992   9.8996
    10.3966  10.3968  10.5438  10.5440  12.1254  12.1257  12.2778  12.2780
    12.3114  12.3116  12.3758  12.3760  12.4172  12.4174  12.7024  12.7027
    15.5909  15.5909  15.6130  15.6132  15.6140  15.6140  15.7032  15.7033
    16.1595  16.1596  16.6455  16.6456  16.7340  16.7341

     occupation numbers 
     1.0000   1.0000   1.0000   1.0000   1.0000   1.0000   1.0000   1.0000
     1.0000   1.0000   1.0000   1.0000   1.0000   1.0000   1.0000   1.0000
     1.0000   1.0000   1.0000   1.0000   1.0000   1.0000   1.0000   1.0000
     1.0000   1.0000   1.0000   1.0000   1.0000   1.0000   1.0000   1.0000
     1.0000   1.0000   1.0000   1.0000   1.0000   1.0000   1.0000   1.0000
     1.0000   1.0000   1.0000   1.0000   1.0000   1.0000   1.0000   1.0000
     1.0000   1.0000   1.0000   1.0000   1.0000   1.0000   1.0000   1.0000
     1.0000   1.0000   1.0000   1.0000   1.0000   1.0000   1.0000   1.0000
     1.0000   1.0000   1.0000   1.0000   1.0000   1.0000   1.0000   1.0000
     1.0000   1.0000   1.0000   1.0000   1.0000   1.0000   1.0000   1.0000
     1.0000   1.0000   1.0000   1.0000   1.0000   1.0000   1.0000   1.0000
     1.0000   1.0000   1.0000   1.0000   1.0000   1.0000   1.0000   1.0000
     1.0000   1.0000   1.0000   1.0000   1.0000   1.0000   1.0000   1.0000
     1.0000   1.0000   1.0000   1.0000   1.0000   1.0000   1.0000   1.0000
     1.0000   1.0000   1.0000   1.0000   1.0000   1.0000   1.0000   1.0000
     1.0000   1.0000   1.0000   1.0000   1.0000   1.0000   1.0000   1.0000
     1.0000   1.0000   1.0000   1.0000   1.0000   1.0000   1.0000   1.0000
[...]
     atom   27 type  4   force =     0.00000000   -0.61579446   -0.00000000
     atom   28 type  4   force =    -0.00000000    0.61579446   -0.00000000
     atom   29 type  4   force =     0.00000000   -0.00000000   -0.61579446
     atom   30 type  4   force =    -0.00000000   -0.00000000    0.61579446
     atom   31 type  4   force =    -0.61579446   -0.00000000    0.00000000
     atom   32 type  4   force =     0.61579446    0.00000000   -0.00000000
     atom   33 type  4   force =    -0.00000000   -0.61579446    0.00000000
     atom   34 type  4   force =    -0.00000000    0.61579446    0.00000000
     atom   35 type  4   force =    -0.00000000    0.00000000   -0.61579446
     atom   36 type  4   force =    -0.00000000   -0.00000000    0.61579446
     atom   37 type  4   force =    -0.61579446   -0.00000000    0.00000000
     atom   38 type  4   force =     0.61579446    0.00000000    0.00000000
     atom   39 type  4   force =     0.00000000   -0.61579446    0.00000000
     atom   40 type  4   force =    -0.00000000    0.61579446   -0.00000000
     The local contribution  to forces
     atom    1 type  1   force =    -0.00014649   -0.00014649   -0.00014649
     atom    2 type  1   force =     0.00014649    0.00014649    0.00014649
     atom    3 type  1   force =     0.00014649   -0.00014649   -0.00014649
     atom    4 type  1   force =    -0.00014649    0.00014649    0.00014649
     atom    5 type  1   force =     0.00014649    0.00014649   -0.00014649
     atom    6 type  1   force =    -0.00014649   -0.00014649    0.00014649
     atom    7 type  1   force =    -0.00014649    0.00014649   -0.00014649
     atom    8 type  1   force =     0.00014649   -0.00014649    0.00014649
     atom    9 type  2   force =     0.00000000    0.00000000    0.00000000
     atom   10 type  2   force =     0.00000000    0.00000000    0.00000000
     atom   11 type  2   force =     0.00000000    0.00000000    0.00000000
     atom   12 type  2   force =     0.00000000    0.00000000    0.00000000
     atom   13 type  3   force =     0.00000000    0.00000000    0.00000000
     atom   14 type  3   force =     0.00000000    0.00000000    0.00000000
     atom   15 type  3   force =     0.00000000    0.00000000    0.00000000
     atom   16 type  3   force =     0.00000000    0.00000000    0.00000000
     atom   17 type  4   force =     0.00000000    0.00000000    0.33422321
     atom   18 type  4   force =     0.00000000    0.00000000   -0.33422321
     atom   19 type  4   force =     0.33422321   -0.00000000    0.00000000
     atom   20 type  4   force =    -0.33422321    0.00000000    0.00000000
     atom   21 type  4   force =     0.00000000    0.33422321    0.00000000
     atom   22 type  4   force =    -0.00000000   -0.33422321    0.00000000
     atom   23 type  4   force =     0.00000000    0.00000000    0.33435237
     atom   24 type  4   force =     0.00000000    0.00000000   -0.33435237
     atom   25 type  4   force =     0.33453435   -0.00000000    0.00000000
     atom   26 type  4   force =    -0.33453435    0.00000000    0.00000000
     atom   27 type  4   force =    -0.00000000    0.33453435    0.00000000
     atom   28 type  4   force =     0.00000000   -0.33453435    0.00000000
     atom   29 type  4   force =     0.00000000    0.00000000    0.33453435
     atom   30 type  4   force =     0.00000000    0.00000000   -0.33453435
     atom   31 type  4   force =     0.33453435   -0.00000000    0.00000000
     atom   32 type  4   force =    -0.33453435    0.00000000    0.00000000
     atom   33 type  4   force =     0.00000000    0.33435237    0.00000000
     atom   34 type  4   force =     0.00000000   -0.33435237    0.00000000
     atom   35 type  4   force =     0.00000000    0.00000000    0.33453435
     atom   36 type  4   force =     0.00000000    0.00000000   -0.33453435
     atom   37 type  4   force =     0.33435237   -0.00000000    0.00000000
     atom   38 type  4   force =    -0.33435237    0.00000000    0.00000000
     atom   39 type  4   force =    -0.00000000    0.33453435    0.00000000
     atom   40 type  4   force =     0.00000000   -0.33453435    0.00000000
     The core correction contribution to forces
     atom    1 type  1   force =    -0.00000034   -0.00000034   -0.00000034
     atom    2 type  1   force =     0.00000034    0.00000034    0.00000034
     atom    3 type  1   force =     0.00000034   -0.00000034   -0.00000034
     atom    4 type  1   force =    -0.00000034    0.00000034    0.00000034
     atom    5 type  1   force =     0.00000034    0.00000034   -0.00000034
     atom    6 type  1   force =    -0.00000034   -0.00000034    0.00000034
     atom    7 type  1   force =    -0.00000034    0.00000034   -0.00000034
     atom    8 type  1   force =     0.00000034   -0.00000034    0.00000034
     atom    9 type  2   force =     0.00000000    0.00000000    0.00000000
     atom   10 type  2   force =     0.00000000    0.00000000    0.00000000
     atom   11 type  2   force =     0.00000000    0.00000000    0.00000000
     atom   12 type  2   force =     0.00000000    0.00000000    0.00000000
     atom   13 type  3   force =     0.00000000    0.00000000   -0.00000000
     atom   14 type  3   force =    -0.00000000    0.00000000    0.00000000
     atom   15 type  3   force =     0.00000000   -0.00000000    0.00000000
     atom   16 type  3   force =    -0.00000000   -0.00000000   -0.00000000
     atom   17 type  4   force =     0.00000000    0.00000000   -0.00037166
     atom   18 type  4   force =     0.00000000    0.00000000    0.00037166
     atom   19 type  4   force =    -0.00037166    0.00000000    0.00000000
     atom   20 type  4   force =     0.00037166   -0.00000000    0.00000000
     atom   21 type  4   force =    -0.00000000   -0.00037166    0.00000000
     atom   22 type  4   force =     0.00000000    0.00037166    0.00000000
     atom   23 type  4   force =     0.00000000    0.00000000   -0.00037156
     atom   24 type  4   force =     0.00000000    0.00000000    0.00037156
     atom   25 type  4   force =    -0.00037185    0.00000000    0.00000000
     atom   26 type  4   force =     0.00037185   -0.00000000    0.00000000
     atom   27 type  4   force =     0.00000000   -0.00037185    0.00000000
     atom   28 type  4   force =     0.00000000    0.00037185    0.00000000
     atom   29 type  4   force =    -0.00000000    0.00000000   -0.00037185
     atom   30 type  4   force =     0.00000000    0.00000000    0.00037185
     atom   31 type  4   force =    -0.00037185   -0.00000000   -0.00000000
     atom   32 type  4   force =     0.00037185    0.00000000    0.00000000
     atom   33 type  4   force =     0.00000000   -0.00037156    0.00000000
     atom   34 type  4   force =    -0.00000000    0.00037156    0.00000000
     atom   35 type  4   force =     0.00000000   -0.00000000   -0.00037185
     atom   36 type  4   force =     0.00000000    0.00000000    0.00037185
     atom   37 type  4   force =    -0.00037156   -0.00000000    0.00000000
     atom   38 type  4   force =     0.00037156    0.00000000    0.00000000
     atom   39 type  4   force =    -0.00000000   -0.00037185   -0.00000000
     atom   40 type  4   force =     0.00000000    0.00037185    0.00000000
     The Hubbard contrib.    to forces
     atom    1 type  1   force =     0.00000000    0.00000000    0.00000000
     atom    2 type  1   force =     0.00000000    0.00000000    0.00000000
     atom    3 type  1   force =     0.00000000    0.00000000    0.00000000
     atom    4 type  1   force =     0.00000000    0.00000000    0.00000000
     atom    5 type  1   force =     0.00000000    0.00000000    0.00000000
     atom    6 type  1   force =     0.00000000    0.00000000    0.00000000
     atom    7 type  1   force =     0.00000000    0.00000000    0.00000000
     atom    8 type  1   force =     0.00000000    0.00000000    0.00000000
     atom    9 type  2   force =     0.00000000    0.00000000    0.00000000
     atom   10 type  2   force =     0.00000000    0.00000000    0.00000000
     atom   11 type  2   force =     0.00000000    0.00000000    0.00000000
     atom   12 type  2   force =     0.00000000    0.00000000    0.00000000
     atom   13 type  3   force =     0.00000000    0.00000000    0.00000000
     atom   14 type  3   force =     0.00000000    0.00000000    0.00000000
     atom   15 type  3   force =     0.00000000    0.00000000    0.00000000
     atom   16 type  3   force =     0.00000000    0.00000000    0.00000000
     atom   17 type  4   force =     0.00000000    0.00000000    0.00000000
     atom   18 type  4   force =     0.00000000    0.00000000    0.00000000
     atom   19 type  4   force =     0.00000000    0.00000000    0.00000000
     atom   20 type  4   force =     0.00000000    0.00000000    0.00000000
     atom   21 type  4   force =     0.00000000    0.00000000    0.00000000
     atom   22 type  4   force =     0.00000000    0.00000000    0.00000000
     atom   23 type  4   force =     0.00000000    0.00000000    0.00000000
     atom   24 type  4   force =     0.00000000    0.00000000    0.00000000
     atom   25 type  4   force =     0.00000000    0.00000000    0.00000000
     atom   26 type  4   force =     0.00000000    0.00000000    0.00000000
     atom   27 type  4   force =     0.00000000    0.00000000    0.00000000
     atom   28 type  4   force =     0.00000000    0.00000000    0.00000000
     atom   29 type  4   force =     0.00000000    0.00000000    0.00000000
     atom   30 type  4   force =     0.00000000    0.00000000    0.00000000
     atom   31 type  4   force =     0.00000000    0.00000000    0.00000000
     atom   32 type  4   force =     0.00000000    0.00000000    0.00000000
     atom   33 type  4   force =     0.00000000    0.00000000    0.00000000
     atom   34 type  4   force =     0.00000000    0.00000000    0.00000000
     atom   35 type  4   force =     0.00000000    0.00000000    0.00000000
     atom   36 type  4   force =     0.00000000    0.00000000    0.00000000
     atom   37 type  4   force =     0.00000000    0.00000000    0.00000000
     atom   38 type  4   force =     0.00000000    0.00000000    0.00000000
     atom   39 type  4   force =     0.00000000    0.00000000    0.00000000
     atom   40 type  4   force =     0.00000000    0.00000000    0.00000000
     The SCF correction term to forces
     atom    1 type  1   force =     0.00015080    0.00015080    0.00015080
     atom    2 type  1   force =    -0.00015080   -0.00015080   -0.00015080
     atom    3 type  1   force =    -0.00015080    0.00015080    0.00015080
     atom    4 type  1   force =     0.00015080   -0.00015080   -0.00015080
     atom    5 type  1   force =    -0.00015080   -0.00015080    0.00015080
     atom    6 type  1   force =     0.00015080    0.00015080   -0.00015080
     atom    7 type  1   force =     0.00015080   -0.00015080    0.00015080
     atom    8 type  1   force =    -0.00015080    0.00015080   -0.00015080
     atom    9 type  2   force =    -0.00000000    0.00000000    0.00000000
     atom   10 type  2   force =    -0.00000000   -0.00000000   -0.00000000
     atom   11 type  2   force =    -0.00000000   -0.00000000   -0.00000000
     atom   12 type  2   force =     0.00000000   -0.00000000   -0.00000000
     atom   13 type  3   force =     0.00000000    0.00000000   -0.00000000
     atom   14 type  3   force =     0.00000000   -0.00000000   -0.00000000
     atom   15 type  3   force =     0.00000000   -0.00000000   -0.00000000
     atom   16 type  3   force =    -0.00000000   -0.00000000   -0.00000000
     atom   17 type  4   force =    -0.00000000    0.00000000   -0.00012785
     atom   18 type  4   force =     0.00000000    0.00000000    0.00012785
     atom   19 type  4   force =    -0.00012785    0.00000000    0.00000000
     atom   20 type  4   force =     0.00012785   -0.00000000    0.00000000
     atom   21 type  4   force =     0.00000000   -0.00012785    0.00000000
     atom   22 type  4   force =     0.00000000    0.00012785    0.00000000
     atom   23 type  4   force =    -0.00000000    0.00000000   -0.00027377
     atom   24 type  4   force =     0.00000000   -0.00000000    0.00027377
     atom   25 type  4   force =    -0.00047581   -0.00000000    0.00000000
     atom   26 type  4   force =     0.00047581    0.00000000    0.00000000
     atom   27 type  4   force =     0.00000000   -0.00047581    0.00000000
     atom   28 type  4   force =     0.00000000    0.00047581    0.00000000
     atom   29 type  4   force =     0.00000000   -0.00000000   -0.00047581
     atom   30 type  4   force =    -0.00000000    0.00000000    0.00047581
     atom   31 type  4   force =    -0.00047581    0.00000000    0.00000000
     atom   32 type  4   force =     0.00047581   -0.00000000    0.00000000
     atom   33 type  4   force =    -0.00000000   -0.00027377    0.00000000
     atom   34 type  4   force =    -0.00000000    0.00027377    0.00000000
     atom   35 type  4   force =     0.00000000    0.00000000   -0.00047581
     atom   36 type  4   force =    -0.00000000    0.00000000    0.00047581
     atom   37 type  4   force =    -0.00027377   -0.00000000    0.00000000
     atom   38 type  4   force =     0.00027377   -0.00000000    0.00000000
     atom   39 type  4   force =    -0.00000000   -0.00047581    0.00000000
     atom   40 type  4   force =    -0.00000000    0.00047581    0.00000000

     Total force =     0.044628     Total SCF correction =     0.001952


     Computing stress (Cartesian axis) and pressure


     negative rho (up, down):  2.654E-01 2.643E-01
          total   stress  (Ry/bohr**3)                   (kbar)     P=      -90.19
  -0.00061307   0.00000000   0.00000000          -90.19        0.00        0.00
   0.00000000  -0.00061307   0.00000000            0.00      -90.19        0.00
   0.00000000   0.00000000  -0.00061307            0.00        0.00      -90.19

     kinetic stress (kbar)  22297.56      0.00      0.00
                                0.00  22297.56      0.00
                                0.00      0.00  22297.56

     local   stress (kbar) -10896.26     -0.00      0.00
                               -0.00 -10896.26      0.00
                                0.00      0.00 -10896.26

     nonloc. stress (kbar)  11391.47      0.00      0.00
                                0.00  11391.47      0.00
                                0.00      0.00  11391.47

     hartree stress (kbar)  11063.94     -0.00     -0.00
                               -0.00  11063.94     -0.00
                               -0.00     -0.00  11063.94

     exc-cor stress (kbar)  -1399.54     -0.00      0.00
                               -0.00  -1399.54      0.00
                                0.00      0.00  -1399.54

     corecor stress (kbar)  -4783.88     -0.00      0.00
                               -0.00  -4783.88      0.00
                                0.00      0.00  -4783.88

     ewald   stress (kbar) -27763.48     -0.00      0.00
                               -0.00 -27763.48      0.00
                                0.00      0.00 -27763.48

     hubbard stress (kbar)      0.00      0.00      0.00
                                0.00      0.00      0.00
                                0.00      0.00      0.00

     DFT-D   stress (kbar)      0.00      0.00      0.00
                                0.00      0.00      0.00
                                0.00      0.00      0.00

     XDM     stress (kbar)      0.00      0.00      0.00
                                0.00      0.00      0.00
                                0.00      0.00      0.00

     dft-nl  stress (kbar)      0.00      0.00      0.00
                                0.00      0.00      0.00
                                0.00      0.00      0.00

     TS-vdW  stress (kbar)      0.00      0.00      0.00
                                0.00      0.00      0.00
                                0.00      0.00      0.00

     MDB     stress (kbar)      0.00      0.00      0.00
                                0.00      0.00      0.00
                                0.00      0.00      0.00

     3D-RISM stress (kbar)      0.00      0.00      0.00
                                0.00      0.00      0.00
                                0.00      0.00      0.00


     Writing all to output data dir ./VLAB.save/

     init_run     :    625.41s CPU    634.99s WALL (       1 calls)
     electrons    :  39419.68s CPU  39766.72s WALL (       1 calls)
     forces       :    574.75s CPU    577.61s WALL (       1 calls)
     stress       :   2215.52s CPU   2232.03s WALL (       1 calls)

     Called by init_run:
     wfcinit      :    603.66s CPU    609.20s WALL (       1 calls)
     wfcinit:wfcr :    597.27s CPU    601.12s WALL (      40 calls)
     potinit      :      1.64s CPU      2.22s WALL (       1 calls)
     hinit0       :      2.08s CPU      2.23s WALL (       1 calls)

     Called by electrons:
     c_bands      :  35826.85s CPU  36072.54s WALL (      17 calls)
     sum_band     :   3338.19s CPU   3403.47s WALL (      17 calls)
     v_of_rho     :     21.71s CPU     24.19s WALL (      18 calls)
     v_h          :      0.79s CPU      0.91s WALL (      18 calls)
     v_xc         :     23.26s CPU     25.86s WALL (      20 calls)
     newd         :    245.63s CPU    282.64s WALL (      18 calls)
     mix_rho      :      3.75s CPU      3.86s WALL (      17 calls)

     Called by c_bands:
     init_us_2    :     34.25s CPU     34.33s WALL (    1480 calls)
     init_us_2:cp :     34.24s CPU     34.32s WALL (    1480 calls)
     cegterg      :  35649.48s CPU  35894.64s WALL (     680 calls)

     Called by sum_band:
     sum_band:wei :      0.11s CPU      0.11s WALL (      17 calls)
     sum_band:loo :   3079.73s CPU   3097.48s WALL (      17 calls)
     sum_band:buf :      6.57s CPU      6.58s WALL (     680 calls)
     sum_band:ini :     15.10s CPU     15.11s WALL (     680 calls)
     sum_band:cal :   2240.98s CPU   2241.73s WALL (     680 calls)
     sum_band:bec :      4.11s CPU      4.12s WALL (     680 calls)
     addusdens    :    254.50s CPU    301.78s WALL (      17 calls)
                                        0.00s GPU  (      17 calls)
     addusd:skk   :      1.69s CPU      3.25s WALL (      68 calls)
                                        0.00s GPU  (      68 calls)

     Called by *egterg:
     cdiaghg      :   2359.35s CPU   2391.23s WALL (    3735 calls)
     cegterg:over :   5786.54s CPU   5787.82s WALL (    3055 calls)
     cegterg:upda :   3789.53s CPU   3818.70s WALL (    3055 calls)
     cegterg:last :   1954.87s CPU   1955.49s WALL (     680 calls)
     cdiaghg:chol :    110.88s CPU    110.95s WALL (    3735 calls)
     cdiaghg:inve :     69.07s CPU     69.12s WALL (    3735 calls)
     cdiaghg:para :   1034.35s CPU   1043.53s WALL (    7470 calls)
     h_psi        :  15156.50s CPU  15280.54s WALL (    3775 calls)
     s_psi        :   5850.57s CPU   5852.12s WALL (    3775 calls)
     g_psi        :     10.21s CPU     10.23s WALL (    3055 calls)

     Called by h_psi:
     h_psi:calbec :   5797.51s CPU   5800.09s WALL (    3775 calls)
     vloc_psi     :   3483.37s CPU   3573.23s WALL (    3775 calls)
     add_vuspsi   :   5858.07s CPU   5858.92s WALL (    3775 calls)

     General routines
     calbec       :   8713.19s CPU   8716.74s WALL (    4655 calls)
     fft          :     14.19s CPU     15.31s WALL (     488 calls)
     ffts         :      0.54s CPU      0.54s WALL (      70 calls)
     fftw         :   3270.76s CPU   3350.80s WALL (  863620 calls)
     interpolate  :      1.45s CPU      1.53s WALL (      36 calls)

     Parallel routines

     PWSCF        :     11h53m CPU     12h 0m WALL


   This run was terminated on:  18:38:11   7Sep2023            

=------------------------------------------------------------------------------=
   JOB DONE.
=------------------------------------------------------------------------------=
